 vasp.5.4.4.18Apr17-6-g9f103f2a35 (build Mar 06 2019 14:20:02) complex          
  
 executed on             LinuxIFC date 2020.08.22  13:35:38
 running on   96 total cores
 distrk:  each k-point on   96 cores,    1 groups
 distr:  one band on NCORES_PER_BAND=  24 cores,    4 groups


--------------------------------------------------------------------------------------------------------


 INCAR:
 POTCAR:    PAW_PBE Fe 06Sep2000                  
 POTCAR:    PAW_PBE H 15Jun2001                   
 POTCAR:    PAW_PBE Au 04Oct2007                  
 POTCAR:    PAW_PBE C 08Apr2002                   
 POTCAR:    PAW_PBE N 08Apr2002                   

 ----------------------------------------------------------------------------- 
|                                                                             |
|           W    W    AA    RRRRR   N    N  II  N    N   GGGG   !!!           |
|           W    W   A  A   R    R  NN   N  II  NN   N  G    G  !!!           |
|           W    W  A    A  R    R  N N  N  II  N N  N  G       !!!           |
|           W WW W  AAAAAA  RRRRR   N  N N  II  N  N N  G  GGG   !            |
|           WW  WW  A    A  R   R   N   NN  II  N   NN  G    G                |
|           W    W  A    A  R    R  N    N  II  N    N   GGGG   !!!           |
|                                                                             |
|      For optimal performance we recommend to set                            |
|        NCORE= 4 - approx SQRT( number of cores)                             |
|      NCORE specifies how many cores store one orbital (NPAR=cpu/NCORE).     |
|      This setting can  greatly improve the performance of VASP for DFT.     |
|      The default,   NCORE=1            might be grossly inefficient         |
|      on modern multi-core architectures or massively parallel machines.     |
|      Do your own testing !!!!                                               |
|      Unfortunately you need to use the default for GW and RPA calculations. |
|      (for HF NCORE is supported but not extensively tested yet)             |
|                                                                             |
 ----------------------------------------------------------------------------- 

 POTCAR:    PAW_PBE Fe 06Sep2000                  
   VRHFIN =Fe:  d7 s1                                                           
   LEXCH  = PE                                                                  
   EATOM  =   594.3153 eV,   43.6809 Ry                                         
                                                                                
   TITEL  = PAW_PBE Fe 06Sep2000                                                
   LULTRA =        F    use ultrasoft PP ?                                      
   IUNSCR =        1    unscreen: 0-lin 1-nonlin 2-no                           
   RPACOR =    2.000    partial core radius                                     
   POMASS =   55.847; ZVAL   =    8.000    mass and valenz                      
   RCORE  =    2.300    outmost cutoff radius                                   
   RWIGS  =    2.460; RWIGS  =    1.302    wigner-seitz radius (au A)           
   ENMAX  =  267.882; ENMIN  =  200.911 eV                                      
   RCLOC  =    1.701    cutoff for local pot                                    
   LCOR   =        T    correct aug charges                                     
   LPAW   =        T    paw PP                                                  
   EAUG   =  511.368                                                            
   DEXC   =    0.000                                                            
   RMAX   =    2.356    core radius for proj-oper                               
   RAUG   =    1.300    factor for augmentation sphere                          
   RDEP   =    2.442    radius for radial grids                                 
   RDEPT  =    1.890    core radius for aug-charge                              
                                                                                
   Atomic configuration                                                         
    9 entries                                                                   
     n  l   j            E        occ.                                          
     1  0  0.50     -6993.8440   2.0000                                         
     2  0  0.50      -814.6047   2.0000                                         
     2  1  1.50      -693.3689   6.0000                                         
     3  0  0.50       -89.4732   2.0000                                         
     3  1  1.50       -55.6373   6.0000                                         
     3  2  2.50        -3.8151   7.0000                                         
     4  0  0.50        -4.2551   1.0000                                         
     4  1  1.50        -3.4015   0.0000                                         
     4  3  2.50        -1.3606   0.0000                                         
   Description                                                                  
     l       E           TYP  RCUT    TYP  RCUT                                 
     2     -3.8151135     23  2.300                                             
     2     -5.1756961     23  2.300                                             
     0     -4.2550963     23  2.300                                             
     0      7.2035603     23  2.300                                             
     1     -2.7211652     23  2.300                                             
     1     18.4316424     23  2.300                                             
  local pseudopotential read in
  partial core-charges read in
  partial kinetic energy density read in
  atomic valenz-charges read in
  non local Contribution for L=           2  read in
    real space projection operators read in
  non local Contribution for L=           2  read in
    real space projection operators read in
  non local Contribution for L=           0  read in
    real space projection operators read in
  non local Contribution for L=           0  read in
    real space projection operators read in
  non local Contribution for L=           1  read in
    real space projection operators read in
  non local Contribution for L=           1  read in
    real space projection operators read in
    PAW grid and wavefunctions read in
 
   number of l-projection  operators is LMAX  =           6
   number of lm-projection operators is LMMAX =          18
 
 POTCAR:    PAW_PBE H 15Jun2001                   
   VRHFIN =H: ultrasoft test                                                    
   LEXCH  = PE                                                                  
   EATOM  =    12.4884 eV,    0.9179 Ry                                         
                                                                                
   TITEL  = PAW_PBE H 15Jun2001                                                 
   LULTRA =        F    use ultrasoft PP ?                                      
   IUNSCR =        0    unscreen: 0-lin 1-nonlin 2-no                           
   RPACOR =    0.000    partial core radius                                     
   POMASS =    1.000; ZVAL   =    1.000    mass and valenz                      
   RCORE  =    1.100    outmost cutoff radius                                   
   RWIGS  =    0.700; RWIGS  =    0.370    wigner-seitz radius (au A)           
   ENMAX  =  250.000; ENMIN  =  200.000 eV                                      
   RCLOC  =    0.701    cutoff for local pot                                    
   LCOR   =        T    correct aug charges                                     
   LPAW   =        T    paw PP                                                  
   EAUG   =  400.000                                                            
   RMAX   =    1.123    core radius for proj-oper                               
   RAUG   =    1.200    factor for augmentation sphere                          
   RDEP   =    1.112    radius for radial grids                                 
   RDEPT  =    0.926    core radius for aug-charge                              
                                                                                
   Atomic configuration                                                         
    2 entries                                                                   
     n  l   j            E        occ.                                          
     1  0  0.50        -6.4927   1.0000                                         
     2  1  0.50        -3.4015   0.0000                                         
   Description                                                                  
     l       E           TYP  RCUT    TYP  RCUT                                 
     0     -6.4927494     23  1.100                                             
     0      6.8029130     23  1.100                                             
     1     -4.0817478     23  1.100                                             
  local pseudopotential read in
  atomic valenz-charges read in
  non local Contribution for L=           0  read in
    real space projection operators read in
  non local Contribution for L=           0  read in
    real space projection operators read in
  non local Contribution for L=           1  read in
    real space projection operators read in
    PAW grid and wavefunctions read in
 
   number of l-projection  operators is LMAX  =           3
   number of lm-projection operators is LMMAX =           5
 
 POTCAR:    PAW_PBE Au 04Oct2007                  
   VRHFIN =Au: s1d10                                                            
   LEXCH  = PE                                                                  
   EATOM  =   926.0867 eV,   68.0654 Ry                                         
                                                                                
   TITEL  = PAW_PBE Au 04Oct2007                                                
   LULTRA =        F    use ultrasoft PP ?                                      
   IUNSCR =        1    unscreen: 0-lin 1-nonlin 2-no                           
   RPACOR =    2.330    partial core radius                                     
   POMASS =  196.966; ZVAL   =   11.000    mass and valenz                      
   RCORE  =    2.500    outmost cutoff radius                                   
   RWIGS  =    2.840; RWIGS  =    1.503    wigner-seitz radius (au A)           
   ENMAX  =  229.943; ENMIN  =  172.457 eV                                      
   ICORE  =        3    local potential                                         
   LCOR   =        T    correct aug charges                                     
   LPAW   =        T    paw PP                                                  
   EAUG   =  356.670                                                            
   DEXC   =    0.000                                                            
   RMAX   =    2.562    core radius for proj-oper                               
   RAUG   =    1.300    factor for augmentation sphere                          
   RDEP   =    2.598    radius for radial grids                                 
   RDEPT  =    2.193    core radius for aug-charge                              
                                                                                
   Atomic configuration                                                         
   16 entries                                                                   
     n  l   j            E        occ.                                          
     1  0  0.50    -80748.5001   2.0000                                         
     2  0  0.50    -14244.7466   2.0000                                         
     2  1  1.50    -12310.9591   6.0000                                         
     3  0  0.50     -3362.1768   2.0000                                         
     3  1  1.50     -2801.5463   6.0000                                         
     3  2  2.50     -2203.8206  10.0000                                         
     4  0  0.50      -729.8168   2.0000                                         
     4  1  1.50      -546.0527   6.0000                                         
     4  2  2.50      -325.7302  10.0000                                         
     4  3  3.50       -81.1472  14.0000                                         
     5  0  0.50      -108.3201   2.0000                                         
     5  1  1.50       -59.7479   6.0000                                         
     5  2  2.50        -6.8783  10.0000                                         
     6  0  0.50        -5.7602   1.0000                                         
     6  1  1.50        -6.8029   0.0000                                         
     5  3  2.50        -1.3606   0.0000                                         
   Description                                                                  
     l       E           TYP  RCUT    TYP  RCUT                                 
     2     -6.8782861     23  2.500                                             
     2     -8.2388687     23  2.500                                             
     0     -5.7601759     23  2.500                                             
     0     -0.8493231     23  2.500                                             
     1     -2.7211652     23  2.500                                             
     1     27.2116520     23  2.500                                             
     3     -1.3605826     23  2.500                                             
  local pseudopotential read in
  partial core-charges read in
  partial kinetic energy density read in
  atomic valenz-charges read in
  non local Contribution for L=           2  read in
    real space projection operators read in
  non local Contribution for L=           2  read in
    real space projection operators read in
  non local Contribution for L=           0  read in
    real space projection operators read in
  non local Contribution for L=           0  read in
    real space projection operators read in
  non local Contribution for L=           1  read in
    real space projection operators read in
  non local Contribution for L=           1  read in
    real space projection operators read in
    PAW grid and wavefunctions read in
 
   number of l-projection  operators is LMAX  =           6
   number of lm-projection operators is LMMAX =          18
 
 POTCAR:    PAW_PBE C 08Apr2002                   
   VRHFIN =C: s2p2                                                              
   LEXCH  = PE                                                                  
   EATOM  =   147.1560 eV,   10.8157 Ry                                         
                                                                                
   TITEL  = PAW_PBE C 08Apr2002                                                 
   LULTRA =        F    use ultrasoft PP ?                                      
   IUNSCR =        1    unscreen: 0-lin 1-nonlin 2-no                           
   RPACOR =    1.200    partial core radius                                     
   POMASS =   12.011; ZVAL   =    4.000    mass and valenz                      
   RCORE  =    1.500    outmost cutoff radius                                   
   RWIGS  =    1.630; RWIGS  =    0.863    wigner-seitz radius (au A)           
   ENMAX  =  400.000; ENMIN  =  300.000 eV                                      
   ICORE  =        2    local potential                                         
   LCOR   =        T    correct aug charges                                     
   LPAW   =        T    paw PP                                                  
   EAUG   =  644.873                                                            
   DEXC   =    0.000                                                            
   RMAX   =    1.529    core radius for proj-oper                               
   RAUG   =    1.300    factor for augmentation sphere                          
   RDEP   =    1.501    radius for radial grids                                 
   RDEPT  =    1.300    core radius for aug-charge                              
                                                                                
   Atomic configuration                                                         
    4 entries                                                                   
     n  l   j            E        occ.                                          
     1  0  0.50      -273.3789   2.0000                                         
     2  0  0.50       -13.7508   2.0000                                         
     2  1  0.50        -5.2854   2.0000                                         
     3  2  1.50        -5.4423   0.0000                                         
   Description                                                                  
     l       E           TYP  RCUT    TYP  RCUT                                 
     0    -13.7508458     23  1.200                                             
     0     -8.2022199     23  1.200                                             
     1     -5.2854383     23  1.500                                             
     1     34.0145650     23  1.500                                             
     2     -5.4423304      7  1.500                                             
  local pseudopotential read in
  partial core-charges read in
  partial kinetic energy density read in
  atomic valenz-charges read in
  non local Contribution for L=           0  read in
    real space projection operators read in
  non local Contribution for L=           0  read in
    real space projection operators read in
  non local Contribution for L=           1  read in
    real space projection operators read in
  non local Contribution for L=           1  read in
    real space projection operators read in
    PAW grid and wavefunctions read in
 
   number of l-projection  operators is LMAX  =           4
   number of lm-projection operators is LMMAX =           8
 
 POTCAR:    PAW_PBE N 08Apr2002                   
   VRHFIN =N: s2p3                                                              
   LEXCH  = PE                                                                  
   EATOM  =   264.5486 eV,   19.4438 Ry                                         
                                                                                
   TITEL  = PAW_PBE N 08Apr2002                                                 
   LULTRA =        F    use ultrasoft PP ?                                      
   IUNSCR =        1    unscreen: 0-lin 1-nonlin 2-no                           
   RPACOR =    1.200    partial core radius                                     
   POMASS =   14.001; ZVAL   =    5.000    mass and valenz                      
   RCORE  =    1.500    outmost cutoff radius                                   
   RWIGS  =    1.400; RWIGS  =    0.741    wigner-seitz radius (au A)           
   ENMAX  =  400.000; ENMIN  =  300.000 eV                                      
   ICORE  =        2    local potential                                         
   LCOR   =        T    correct aug charges                                     
   LPAW   =        T    paw PP                                                  
   EAUG   =  627.112                                                            
   DEXC   =    0.000                                                            
   RMAX   =    1.529    core radius for proj-oper                               
   RAUG   =    1.300    factor for augmentation sphere                          
   RDEP   =    1.514    radius for radial grids                                 
   RDEPT  =    1.338    core radius for aug-charge                              
                                                                                
   Atomic configuration                                                         
    4 entries                                                                   
     n  l   j            E        occ.                                          
     1  0  0.50      -384.7179   2.0000                                         
     2  0  0.50       -18.5828   2.0000                                         
     2  1  0.50        -7.0898   3.0000                                         
     3  2  1.50        -6.8029   0.0000                                         
   Description                                                                  
     l       E           TYP  RCUT    TYP  RCUT                                 
     0    -18.5828119     23  1.200                                             
     0    -13.5018863     23  1.200                                             
     1     -7.0897853     23  1.500                                             
     1      9.5240782     23  1.500                                             
     2     -6.8029130      7  1.500                                             
  local pseudopotential read in
  partial core-charges read in
  partial kinetic energy density read in
  atomic valenz-charges read in
  non local Contribution for L=           0  read in
    real space projection operators read in
  non local Contribution for L=           0  read in
    real space projection operators read in
  non local Contribution for L=           1  read in
    real space projection operators read in
  non local Contribution for L=           1  read in
    real space projection operators read in
    PAW grid and wavefunctions read in
 
   number of l-projection  operators is LMAX  =           4
   number of lm-projection operators is LMMAX =           8
 

 ----------------------------------------------------------------------------- 
|                                                                             |
|  ADVICE TO THIS USER RUNNING 'VASP/VAMP'   (HEAR YOUR MASTER'S VOICE ...):  |
|                                                                             |
|      You have a (more or less) 'large supercell' and for larger cells       |
|      it might be more efficient to use real space projection opertators     |
|      So try LREAL= Auto  in the INCAR   file.                               |
|      Mind:          For very  accurate calculation you might also keep the  |
|      reciprocal projection scheme          (i.e. LREAL=.FALSE.)             |
|                                                                             |
 ----------------------------------------------------------------------------- 

  PAW_PBE Fe 06Sep2000                  :
 energy of atom  1       EATOM= -594.3153
 kinetic energy error for atom=    0.0026 (will be added to EATOM!!)
  PAW_PBE H 15Jun2001                   :
 energy of atom  2       EATOM=  -12.4884
 kinetic energy error for atom=    0.0014 (will be added to EATOM!!)
  PAW_PBE Au 04Oct2007                  :
 energy of atom  3       EATOM= -926.0867
 kinetic energy error for atom=    0.0034 (will be added to EATOM!!)
  PAW_PBE C 08Apr2002                   :
 energy of atom  4       EATOM= -147.1560
 kinetic energy error for atom=    0.0071 (will be added to EATOM!!)
  PAW_PBE N 08Apr2002                   :
 energy of atom  5       EATOM= -264.5486
 kinetic energy error for atom=    0.0125 (will be added to EATOM!!)
 
 
 POSCAR: Fe  H Au  C  N                          
  positions in direct lattice
  velocities in cartesian coordinates
 exchange correlation table for  LEXCH =        8
   RHO(1)=    0.500       N(1)  =     2000
   RHO(2)=  100.500       N(2)  =     4000
 


--------------------------------------------------------------------------------------------------------


 ion  position               nearest neighbor table
   1  0.250  0.250  0.615-  61 1.93  56 1.93  62 1.93  55 1.93  73 2.00  63 2.00
   2  0.750  0.750  0.385-  60 1.93  57 1.93  59 1.93  58 1.93  74 2.00  64 2.00
   3  0.418  0.082  0.755-  31 1.08
   4  0.082  0.418  0.755-  32 1.08
   5  0.582  0.918  0.245-  33 1.08
   6  0.918  0.582  0.245-  34 1.08
   7  0.426  0.074  0.919-  35 1.08
   8  0.074  0.426  0.919-  36 1.08
   9  0.574  0.926  0.081-  37 1.08
  10  0.926  0.574  0.081-  38 1.08
  11  0.426  0.074  0.313-  47 1.08
  12  0.074  0.426  0.313-  48 1.08
  13  0.574  0.926  0.687-  49 1.08
  14  0.926  0.574  0.687-  50 1.08
  15  0.418  0.082  0.476-  51 1.08
  16  0.082  0.418  0.476-  52 1.08
  17  0.582  0.918  0.524-  53 1.08
  18  0.918  0.582  0.524-  54 1.08
  19  0.750  0.250  0.606-  24 1.97  23 1.97  20 3.20
  20  0.750  0.250  0.394-  25 1.97  26 1.97  19 3.20
  21  0.250  0.750  0.394-  28 1.97  27 1.97  22 3.20
  22  0.250  0.750  0.606-  29 1.97  30 1.97  21 3.20
  23  0.560  0.232  0.611-  55 1.15  19 1.97
  24  0.940  0.268  0.611-  56 1.16  19 1.97
  25  0.732  0.060  0.389-  57 1.16  20 1.97
  26  0.768  0.440  0.389-  58 1.16  20 1.97
  27  0.440  0.768  0.389-  59 1.16  21 1.97
  28  0.060  0.732  0.389-  60 1.16  21 1.97
  29  0.268  0.940  0.611-  61 1.16  22 1.97
  30  0.232  0.560  0.611-  62 1.16  22 1.97
  31  0.344  0.156  0.794-   3 1.08  63 1.34  35 1.38
  32  0.156  0.344  0.794-   4 1.08  63 1.34  36 1.38
  33  0.656  0.844  0.206-   5 1.08  64 1.34  37 1.38
  34  0.844  0.656  0.206-   6 1.08  64 1.34  38 1.38
  35  0.348  0.152  0.886-   7 1.08  31 1.38  39 1.39
  36  0.152  0.348  0.886-   8 1.08  32 1.38  39 1.39
  37  0.652  0.848  0.114-   9 1.08  33 1.38  40 1.39
  38  0.848  0.652  0.114-  10 1.08  34 1.38  40 1.39
  39  0.250  0.250  0.933-  35 1.39  36 1.39  41 1.47
  40  0.750  0.750  0.067-  38 1.39  37 1.39  42 1.47
  41  0.250  0.250  0.031-  66 1.34  65 1.34  39 1.47
  42  0.750  0.750  0.969-  67 1.34  68 1.34  40 1.47
  43  0.250  0.250  0.201-  69 1.34  70 1.34  45 1.47
  44  0.750  0.750  0.799-  71 1.34  72 1.34  46 1.47
  45  0.250  0.250  0.298-  47 1.39  48 1.39  43 1.47
  46  0.750  0.750  0.702-  50 1.39  49 1.39  44 1.47
  47  0.348  0.152  0.346-  11 1.08  51 1.38  45 1.39
  48  0.152  0.348  0.346-  12 1.08  52 1.38  45 1.39
  49  0.652  0.848  0.654-  13 1.08  53 1.38  46 1.39
  50  0.848  0.652  0.654-  14 1.08  54 1.38  46 1.39
  51  0.344  0.156  0.437-  15 1.08  73 1.34  47 1.38
  52  0.156  0.344  0.437-  16 1.08  73 1.34  48 1.38
  53  0.656  0.844  0.563-  17 1.08  74 1.34  49 1.38
  54  0.844  0.656  0.563-  18 1.08  74 1.34  50 1.38
  55  0.447  0.228  0.614-  23 1.15   1 1.93
  56  0.053  0.272  0.614-  24 1.16   1 1.93
  57  0.728  0.947  0.386-  25 1.16   2 1.93
  58  0.772  0.553  0.386-  26 1.16   2 1.93
  59  0.553  0.772  0.386-  27 1.16   2 1.93
  60  0.947  0.727  0.386-  28 1.16   2 1.93
  61  0.272  0.053  0.614-  29 1.16   1 1.93
  62  0.228  0.447  0.614-  30 1.16   1 1.93
  63  0.250  0.250  0.748-  31 1.34  32 1.34   1 2.00
  64  0.750  0.750  0.252-  34 1.34  33 1.34   2 2.00
  65  0.347  0.153  0.073-  69 1.30  41 1.34
  66  0.153  0.347  0.073-  70 1.30  41 1.34
  67  0.653  0.847  0.927-  71 1.30  42 1.34
  68  0.847  0.653  0.927-  72 1.30  42 1.34
  69  0.347  0.153  0.159-  65 1.30  43 1.34
  70  0.153  0.347  0.159-  66 1.30  43 1.34
  71  0.653  0.847  0.841-  67 1.30  44 1.34
  72  0.847  0.653  0.841-  68 1.30  44 1.34
  73  0.250  0.250  0.483-  51 1.34  52 1.34   1 2.00
  74  0.750  0.750  0.517-  54 1.34  53 1.34   2 2.00
 

IMPORTANT INFORMATION: All symmetrisations will be switched off!
NOSYMM: (Re-)initialisation of all symmetry stuff for point group C_1.

 
 
 KPOINTS: KPOINTS created by Atomic Simulation Env

Automatic generation of k-mesh.
Space group operators:
 irot       det(A)        alpha          n_x          n_y          n_z        tau_x        tau_y        tau_z
    1     1.000000     0.000001     1.000000     0.000000     0.000000     0.000000     0.000000     0.000000
 
 Subroutine IBZKPT returns following result:
 ===========================================
 
 Found      4 irreducible k-points:
 
 Following reciprocal coordinates:
            Coordinates               Weight
  0.000000  0.000000  0.000000      1.000000
  0.500000  0.000000  0.000000      1.000000
  0.000000  0.500000  0.000000      1.000000
  0.500000  0.500000  0.000000      1.000000
 
 Following cartesian coordinates:
            Coordinates               Weight
  0.000000 -0.000000  0.000000      1.000000
 -0.000240 -0.051491 -0.000000      1.000000
  0.049688  0.013510  0.000000      1.000000
  0.049448 -0.037981 -0.000000      1.000000
 
 
 Subroutine IBZKPT_HF returns following result:
 ==============================================
 
 Found      4 k-points in 1st BZ
 the following      4 k-points will be used (e.g. in the exchange kernel)
 Following reciprocal coordinates:   # in IRBZ
  0.000000  0.000000  0.000000    0.25000000   1 t-inv F
  0.500000  0.000000  0.000000    0.25000000   2 t-inv F
  0.000000  0.500000  0.000000    0.25000000   3 t-inv F
  0.500000  0.500000  0.000000    0.25000000   4 t-inv F


--------------------------------------------------------------------------------------------------------




 Dimension of arrays:
   k-points           NKPTS =      4   k-points in BZ     NKDIM =      4   number of bands    NBANDS=    192
   number of dos      NEDOS =   3000   number of ions     NIONS =     74
   non local maximal  LDIM  =      6   non local SUM 2l+1 LMDIM =     18
   total plane-waves  NPLWV = 716800
   max r-space proj   IRMAX =      1   max aug-charges    IRDMAX=  29948
   dimension x,y,z NGX =    80 NGY =   80 NGZ =  112
   dimension x,y,z NGXF=   160 NGYF=  160 NGZF=  224
   support grid    NGXF=   160 NGYF=  160 NGZF=  224
   ions per type =               2  16   4  32  20
   NGX,Y,Z   is equivalent  to a cutoff of  13.20, 13.20, 12.36 a.u.
   NGXF,Y,Z  is equivalent  to a cutoff of  26.40, 26.40, 24.73 a.u.

 SYSTEM =  unknown system                          
 POSCAR =  Fe  H Au  C  N                          

 Startparameter for this run:
   NWRITE =      2    write-flag & timer
   PREC   = accura    normal or accurate (medium, high low for compatibility)
   ISTART =      1    job   : 0-new  1-cont  2-samecut
   ICHARG =      1    charge: 1-file 2-atom 10-const
   ISPIN  =      1    spin polarized calculation?
   LNONCOLLINEAR =      F non collinear calculations
   LSORBIT =      F    spin-orbit coupling
   INIWAV =      1    electr: 0-lowe 1-rand  2-diag
   LASPH  =      F    aspherical Exc in radial PAW
   METAGGA=      F    non-selfconsistent MetaGGA calc.

 Electronic Relaxation 1
   ENCUT  =  520.0 eV  38.22 Ry    6.18 a.u.  18.73 18.73 28.00*2*pi/ulx,y,z
   ENINI  =  520.0     initial cutoff
   ENAUG  =  644.9 eV  augmentation charge cutoff
   NELM   =    150;   NELMIN=  3; NELMDL=  0     # of ELM steps 
   EDIFF  = 0.1E-04   stopping-criterion for ELM
   LREAL  =      F    real-space projection
   NLSPLINE    = F    spline interpolate recip. space projectors
   LCOMPAT=      F    compatible to vasp.4.4
   GGA_COMPAT  = T    GGA compatible to vasp.4.4-vasp.4.6
   LMAXPAW     = -100 max onsite density
   LMAXMIX     =    2 max onsite mixed and CHGCAR
   VOSKOWN=      0    Vosko Wilk Nusair interpolation
   ROPT   =    0.00000   0.00000   0.00000   0.00000
   ROPT   =    0.00000
 Ionic relaxation
   EDIFFG = 0.1E-03   stopping-criterion for IOM
   NSW    =      0    number of steps for IOM
   NBLOCK =      1;   KBLOCK =      1    inner block; outer block 
   IBRION =     -1    ionic relax: 0-MD 1-quasi-New 2-CG
   NFREE  =      0    steps in history (QN), initial steepest desc. (CG)
   ISIF   =      0    stress and relaxation
   IWAVPR =     10    prediction:  0-non 1-charg 2-wave 3-comb
   ISYM   =      0    0-nonsym 1-usesym 2-fastsym
   LCORR  =      T    Harris-Foulkes like correction to forces

   POTIM  = 0.5000    time-step for ionic-motion
   TEIN   =    0.0    initial temperature
   TEBEG  =    0.0;   TEEND  =   0.0 temperature during run
   SMASS  =  -3.00    Nose mass-parameter (am)
   estimated Nose-frequenzy (Omega)   =  0.10E-29 period in steps =****** mass=  -0.232E-26a.u.
   SCALEE = 1.0000    scale energy and forces
   NPACO  =    256;   APACO  = 16.0  distance and # of slots for P.C.
   PSTRESS=    0.0 pullay stress

  Mass of Ions in am
   POMASS =  55.85  1.00196.97 12.01 14.00
  Ionic Valenz
   ZVAL   =   8.00  1.00 11.00  4.00  5.00
  Atomic Wigner-Seitz radii
   RWIGS  =  -1.00 -1.00 -1.00 -1.00 -1.00
  virtual crystal weights 
   VCA    =   1.00  1.00  1.00  1.00  1.00
   NELECT =     304.0000    total number of electrons
   NUPDOWN=      -1.0000    fix difference up-down

 DOS related values:
   EMIN   =  10.00;   EMAX   =-10.00  energy-range for DOS
   EFERMI =   0.00
   ISMEAR =     0;   SIGMA  =   0.01  broadening in eV -4-tet -1-fermi 0-gaus

 Electronic relaxation 2 (details)
   IALGO  =     58    algorithm
   LDIAG  =      T    sub-space diagonalisation (order eigenvalues)
   LSUBROT=      F    optimize rotation matrix (better conditioning)
   TURBO    =      0    0=normal 1=particle mesh
   IRESTART =      0    0=no restart 2=restart with 2 vectors
   NREBOOT  =      0    no. of reboots
   NMIN     =      0    reboot dimension
   EREF     =   0.00    reference energy to select bands
   IMIX   =      4    mixing-type and parameters
     AMIX     =   0.40;   BMIX     =  1.00
     AMIX_MAG =   1.60;   BMIX_MAG =  1.00
     AMIN     =   0.10
     WC   =   100.;   INIMIX=   1;  MIXPRE=   1;  MAXMIX= -45

 Intra band minimization:
   WEIMIN = 0.0000     energy-eigenvalue tresh-hold
   EBREAK =  0.13E-07  absolut break condition
   DEPER  =   0.30     relativ break condition  

   TIME   =   0.40     timestep for ELM

  volume/ion in A,a.u.               =      19.91       134.36
  Fermi-wavevector in a.u.,A,eV,Ry     =   0.967387  1.828097 12.732856  0.935839
  Thomas-Fermi vector in A             =   2.097269
 
 Write flags
   LWAVE        =      T    write WAVECAR
   LDOWNSAMPLE  =      F    k-point downsampling of WAVECAR
   LCHARG       =      T    write CHGCAR
   LVTOT        =      F    write LOCPOT, total local potential
   LVHAR        =      F    write LOCPOT, Hartree potential only
   LELF         =      F    write electronic localiz. function (ELF)
   LORBIT       =     11    0 simple, 1 ext, 2 COOP (PROOUT), +10 PAW based schemes


 Dipole corrections
   LMONO  =      F    monopole corrections only (constant potential shift)
   LDIPOL =      F    correct potential (dipole corrections)
   IDIPOL =      0    1-x, 2-y, 3-z, 4-all directions 
   EPSILON=  1.0000000 bulk dielectric constant

 Exchange correlation treatment:
   GGA     =    PE    GGA type
   LEXCH   =     8    internal setting for exchange type
   VOSKOWN=      0    Vosko Wilk Nusair interpolation
   EXXOEP  =     0    0=HF, 1=EXX-LHF (local Hartree Fock) 2=EXX OEP
   LHFCALC =     T    Hartree Fock is set to
   LSYMGRAD=     F    symmetrize gradient (conserves proper symmetry)
   PRECFOCK=normal    Normal, Fast or Accurate (Low or Medium for compatibility)
   LRHFCALC=     F    long range Hartree Fock
   LRSCOR  =     F    long range correlation only (use DFT for short range part)
   LTHOMAS =     F    Thomas Fermi screening in HF
   LMODELHF=     F    short range full HF, long range fraction AEXX
   ENCUT4O =  -1.0   cutoff for four orbital integrals eV
   LMAXFOCK=     4    L truncation for augmentation on plane wave grid
   LMAXFOCKAE=  -1    L truncation for all-electron charge restoration on plane wave grid
   NMAXFOCKAE=   1    number of basis functions for all-electron charge restoration
   LFOCKAEDFT=     F  apply the AE augmentation even for DFT
   NKREDX  =     1    reduce k-point grid by
   NKREDY  =     1    reduce k-point grid by
   NKREDZ  =     1    reduce k-point grid by
   SHIFTRED=     F    shift reduced grid of Gamma
   HFKIDENT=     F    idential grid for each k-point
   ODDONLY =     F    use only odd q-grid points
   EVENONLY=     F    use only even q-grid points
   HFALPHA =   -1.0000 decay constant for conv. correction
   MCALPHA =    0.0000 extent of test-charge in conv. correction in multipole expansion
   AEXX    =    0.2500 exact exchange contribution
   HFSCREEN=    0.2000 screening length (either q_TF or 0.3 A-1)
   HFSCREENC=   0.2000 screening length for correlation (either q_TF or 0.3 A-1)
   HFRCUT  =    0.0000 spherical cutoff for potential kernel
   ALDAX   =    0.7500 LDA exchange part
   AGGAX   =    0.7500 GGA exchange part
   ALDAC   =    1.0000 LDA correlation
   AGGAC   =    1.0000 GGA correlation
   ENCUTFOCK=  -1.0 apply spherical cutoff to Coloumb kernel
   NBANDSGWLOW=     1    first orbital included in HF term
   NBLOCK_FOCK=    64    blocking factor in FOCK_ACC
 Linear response parameters
   LEPSILON=     F    determine dielectric tensor
   LRPA    =     F    only Hartree local field effects (RPA)
   LNABLA  =     F    use nabla operator in PAW spheres
   LVEL    =     F    velocity operator in full k-point grid
   LINTERFAST=   F  fast interpolation
   KINTER  =     0    interpolate to denser k-point grid
   CSHIFT  =0.1000    complex shift for real part using Kramers Kronig
   OMEGAMAX=  -1.0    maximum frequency
   DEG_THRESHOLD= 0.2000000E-02 threshold for treating states as degnerate
   RTIME   =   -0.100 relaxation time in fs
  (WPLASMAI=    0.000 imaginary part of plasma frequency in eV, 0.658/RTIME)
   DFIELD  = 0.0000000 0.0000000 0.0000000 field for delta impulse in time
 
 Orbital magnetization related:
   ORBITALMAG=     F  switch on orbital magnetization
   LCHIMAG   =     F  perturbation theory with respect to B field
   DQ        =  0.001000  dq finite difference perturbation B field
   LLRAUG    =     F  two centre corrections for induced B field



--------------------------------------------------------------------------------------------------------


 Static calculation
 charge density and potential will be updated during run
 non-spin polarized calculation
 Conjugate gradient for all bands (Freysoldt, et al. PRB 79, 241103 (2009))
 preconditioned conjugated gradient                                        
 perform sub-space diagonalisation
    before iterative eigenvector-optimisation
 modified Broyden-mixing scheme, WC =      100.0
 initial mixing is a Kerker type mixing with AMIX =  0.4000 and BMIX =      1.0000
 Hartree-type preconditioning will be used
 using additional bands           40
 reciprocal scheme for non local part
 use partial core corrections
 no Harris-corrections to forces 
 use gradient corrections 
 use of overlap-Matrix (Vanderbilt PP)
 Gauss-broadening in eV      SIGMA  =   0.01


--------------------------------------------------------------------------------------------------------


  energy-cutoff  :      520.00
  volume of cell :     1473.32
      direct lattice vectors                 reciprocal lattice vectors
     2.643619359 -9.722767199 -0.000025408    -0.000479888 -0.102981859 -0.000000104
    10.075645748 -0.046951751 -0.000035465     0.099375133  0.027020088  0.000000033
    -0.000000822 -0.000015247 15.058598021     0.000000233 -0.000000110  0.066407244

  length of vectors
    10.075759293 10.075755144 15.058598021     0.102982977  0.102983019  0.066407244


 
 old parameters found on file WAVECAR:
  energy-cutoff  :      520.00
  volume of cell :     1473.32
      direct lattice vectors                 reciprocal lattice vectors
     2.643619359 -9.722767199 -0.000025408    -0.000479888 -0.102981859 -0.000000104
    10.075645748 -0.046951751 -0.000035465     0.099375133  0.027020088  0.000000033
    -0.000000822 -0.000015247 15.058598021     0.000000233 -0.000000110  0.066407244

  length of vectors

 
 k-points in units of 2pi/SCALE and weight: KPOINTS created by Atomic Simulation Env
   0.00000000 -0.00000000  0.00000000       0.250
  -0.00023994 -0.05149093 -0.00000005       0.250
   0.04968757  0.01351004  0.00000002       0.250
   0.04944762 -0.03798089 -0.00000004       0.250
 
 k-points in reciprocal lattice and weights: KPOINTS created by Atomic Simulation Env
   0.00000000  0.00000000  0.00000000       0.250
   0.50000000  0.00000000  0.00000000       0.250
   0.00000000  0.50000000  0.00000000       0.250
   0.50000000  0.50000000  0.00000000       0.250
 
 position of ions in fractional coordinates (direct lattice) 
   0.24999835  0.24999924  0.61542224
   0.75000096  0.74999860  0.38457891
   0.41831688  0.08168360  0.75542694
   0.08168111  0.41831618  0.75542731
   0.58168573  0.91831707  0.24457581
   0.91831726  0.58168042  0.24457458
   0.42644123  0.07356083  0.91914319
   0.07355866  0.42644126  0.91914356
   0.57356186  0.92644221  0.08085991
   0.92644106  0.57355782  0.08085864
   0.42604832  0.07395266  0.31263759
   0.07395069  0.42604686  0.31263772
   0.57395144  0.92604792  0.68736214
   0.92604887  0.57395226  0.68736253
   0.41824143  0.08175794  0.47602216
   0.08175520  0.41824092  0.47602206
   0.58175731  0.91824072  0.52397784
   0.91824323  0.58175733  0.52397808
   0.74999880  0.25000051  0.60640615
   0.74999716  0.24999903  0.39359146
   0.25000026  0.75000007  0.39358888
   0.24999838  0.74999979  0.60640468
   0.55988770  0.23208915  0.61070788
   0.94010290  0.26791039  0.61070778
   0.73208765  0.05990366  0.38929234
   0.76790947  0.44009977  0.38929056
   0.44009660  0.76791072  0.38928950
   0.05990670  0.73208846  0.38929003
   0.26791013  0.94010172  0.61070608
   0.23208723  0.55989361  0.61070711
   0.34387818  0.15612256  0.79410145
   0.15612098  0.34387829  0.79410167
   0.65612379  0.84387763  0.20590010
   0.84387880  0.65611989  0.20589946
   0.34798553  0.15201630  0.88575638
   0.15201477  0.34798590  0.88575664
   0.65201699  0.84798512  0.11424562
   0.84798556  0.65201379  0.11424492
   0.25000071  0.25000160  0.93311518
   0.75000103  0.74999946  0.06688679
   0.25000114  0.25000208  0.03068657
   0.75000054  0.74999973  0.96931515
   0.25000029  0.25000074  0.20099308
   0.75000022  0.75000028  0.79900782
   0.24999936  0.24999962  0.29842812
   0.75000028  0.75000027  0.70157252
   0.34777191  0.15222748  0.34583267
   0.15222612  0.34777154  0.34583279
   0.65222750  0.84777217  0.65416791
   0.84777307  0.65222776  0.65416808
   0.34388671  0.15611205  0.43733539
   0.15611042  0.34388673  0.43733543
   0.65611209  0.84388684  0.56266583
   0.84388854  0.65611174  0.56266594
   0.44669320  0.22750146  0.61429505
   0.05330582  0.27249771  0.61429504
   0.72750109  0.94669004  0.38570607
   0.77249897  0.55330527  0.38570496
   0.55330916  0.77249773  0.38570475
   0.94669197  0.72749889  0.38570541
   0.27249810  0.05330710  0.61429444
   0.22750004  0.44669286  0.61429495
   0.24999945  0.25000016  0.74842583
   0.75000120  0.74999824  0.25157522
   0.34679452  0.15321123  0.07266031
   0.15320826  0.34679314  0.07266072
   0.65320836  0.84679154  0.92734085
   0.84679237  0.65320799  0.92734026
   0.34681500  0.15318975  0.15903617
   0.15318698  0.34681323  0.15903650
   0.65318740  0.84681266  0.84096536
   0.84681301  0.65318734  0.84096478
   0.24999851  0.24999932  0.48287357
   0.75000041  0.74999888  0.51712785
 
 position of ions in cartesian coordinates  (Angst):
   3.17980370 -2.44242301  9.26738091
   9.53943696 -7.32730439  5.79117362
   1.92888502 -4.07104437 11.37565708
   4.43073881 -0.81381862 11.37565928
  10.79039290 -5.69871524  3.68292146
   8.28848692 -8.95589956  3.68290636
   1.86852040 -4.14965661 13.84099440
   4.49113146 -0.73522993 13.84099643
  10.85078267 -5.62010772  1.21758938
   8.22812284 -9.03450152  1.21757386
   1.87143011 -4.14584564  4.70787034
   4.48819442 -0.73901378  4.70786874
  10.84783939 -5.62388629 10.35066276
   8.23105980 -9.03071616 10.35067211
   1.92943477 -4.07030996  7.16821285
   4.43017657 -0.81453116  7.16820801
  10.78981264 -5.69941187  7.89032434
   8.28906596 -8.95518768  7.89033138
   4.50162740 -7.30381093  9.13159857
   4.50160832 -7.30379164  5.92690759
   8.21764025 -2.46591417  5.92686371
   8.21763227 -2.46589913  9.13157136
   3.81857753 -5.45456403  9.19638200
   5.18464390 -9.15298983  9.19636951
   2.53892885 -7.12073630  5.86217616
   6.46434944 -7.48687441  5.86213500
   8.90064394 -4.31501748  5.86211566
   7.53463421 -0.61683769  5.86213458
  10.18038384 -2.64897654  9.19633720
   6.25483947 -2.28282741  9.19636717
   2.48211794 -3.35078984 11.95804020
   3.87751962 -1.53408576 11.95804164
  10.23715345 -6.41896356  3.10052030
   8.84172571 -8.23564628  3.10051250
   2.45160300 -3.39053326 13.33823500
   3.90805109 -1.49435628 13.33823703
  10.26768232 -6.37922557  1.72033227
   8.81121096 -8.27538113  1.72032365
   3.17983351 -2.44245098 14.05139120
   9.53944603 -7.32730021  1.00717560
   3.17984026 -2.44244138  0.46208147
   9.53944673 -7.32730921 14.59648159
   3.17982430 -2.44243568  3.02665877
   9.53945156 -7.32730358 12.03189199
   3.17981056 -2.44242805  4.49389394
   9.53945173 -7.32730268 10.56465297
   2.45316637 -3.38845791  5.20774100
   3.90645045 -1.49639289  5.20774084
  10.26609281 -6.38127051  9.85080492
   8.81280467 -8.27333345  9.85080945
   2.48203494 -3.35086680  6.58564360
   3.87757706 -1.53397799  6.58564233
  10.23721505 -6.41885570  8.47291198
   8.84166910 -8.23574598  8.47291547
   3.47311045 -4.35378497  9.25040285
   2.88651020 -0.53108371  9.25041103
  11.46174912 -7.11777835  5.80814058
   7.61710078 -7.53681217  5.80813664
   9.24615194 -5.41597219  5.80813138
   9.83271401 -9.23862889  5.80813279
   1.25748417 -2.65194784  9.25040420
   5.10214204 -2.23291232  9.25039904
   3.17981579 -2.44243580 11.27022851
   9.53943402 -7.32730465  3.78832441
   2.46049474 -3.37899707  1.09414810
   3.89918910 -1.50589191  1.09415237
  10.25880507 -6.39076527 13.96440648
   8.82008820 -8.26384843 13.96439956
   2.46033242 -3.37919650  2.39484745
   3.89933517 -1.50568729  2.39485060
  10.25896252 -6.39056117 12.66371272
   8.81993486 -8.26404689 12.66370592
   3.17980509 -2.44242254  7.27138372
   9.53943818 -7.32730104  7.78717473
 


--------------------------------------------------------------------------------------------------------


 k-point  1 :   0.0000 0.0000 0.0000  plane waves:   39633
 k-point  2 :   0.5000 0.0000 0.0000  plane waves:   39682
 k-point  3 :   0.0000 0.5000 0.0000  plane waves:   39682
 k-point  4 :   0.5000 0.5000 0.0000  plane waves:   39624

 maximum and minimum number of plane-waves per node :      1677     1621

 maximum number of plane-waves:     39682
 maximum index in each direction: 
   IXMAX=   18   IYMAX=   18   IZMAX=   27
   IXMIN=  -19   IYMIN=  -19   IZMIN=  -27


 parallel 3D FFT for wavefunctions:
    minimum data exchange during FFTs selected (reduces bandwidth)
 parallel 3D FFT for charge:
    minimum data exchange during FFTs selected (reduces bandwidth)


 FFT grid for exact exchange (Hartree Fock) 
  NGX = 60; NGY = 60; NGZ = 90

 
 Radii for the augmentation spheres in the non-local exchange
 for species   1 augmentation radius   1.263 (default was   1.010)
       energy cutoff for augmentation   2080.0
 for species   2 augmentation radius   0.650 (default was   0.520)
       energy cutoff for augmentation   2080.0
 for species   3 augmentation radius   1.512 (default was   1.210)
       energy cutoff for augmentation   2080.0
 for species   4 augmentation radius   0.874 (default was   0.699)
       energy cutoff for augmentation   2080.0
 for species   5 augmentation radius   0.886 (default was   0.709)
       energy cutoff for augmentation   2080.0

 real space projection operators:
  total allocation   :       5793.34 KBytes
  max/ min on nodes  :        374.09        114.88

 Maximum index for augmentation-charges in exchange          229
  SETUP_FOCK is finished

 total amount of memory used by VASP MPI-rank0    68657. kBytes
=======================================================================

   base      :      30000. kBytes
   nonl-proj :       6729. kBytes
   fftplans  :       4322. kBytes
   grid      :       7214. kBytes
   one-center:         62. kBytes
   HF        :        194. kBytes
   nonlr-proj:       4470. kBytes
   wavefun   :      15666. kBytes
 
     INWAV:  cpu time    1.2405: real time    1.2495
 Broyden mixing: mesh for mixing (old mesh)
   NGX = 37   NGY = 37   NGZ = 55
  (NGX  =160   NGY  =160   NGZ  =224)
  gives a total of  75295 points

 initial charge density was supplied:
 number of electron     304.0000022 magnetization 
 charge density for first step will be calculated from the start-wavefunctions


--------------------------------------------------------------------------------------------------------


 Maximum index for augmentation-charges          249 (set IRDMAX)


--------------------------------------------------------------------------------------------------------


 initial charge from wavefunction
 First call to EWALD:  gamma=   0.156
 Maximum number of real-space cells 3x 3x 2
 Maximum number of reciprocal cells 2x 2x 3

    FEWALD:  cpu time    0.0055: real time    0.0062


--------------------------------------- Iteration      1(   1)  ---------------------------------------


    POTLOK:  cpu time    0.1627: real time    0.1642
    SETDIJ:  cpu time    0.1723: real time    0.1729
    TRIAL :  cpu time  124.0104: real time  124.3204
    CORREC:  cpu time  132.9722: real time  133.2694
    CHARGE:  cpu time    0.0758: real time    0.0759
    --------------------------------------------
      LOOP:  cpu time  257.4001: real time  258.0128

 eigenvalue-minimisations  :     0
 total energy-change (2. order) :-0.6313154E+03  (-0.2022798E-05)
 number of electron     304.0000022 magnetization 
 augmentation part       31.4233319 magnetization 

 Free energy of the ion-electron system (eV)
  ---------------------------------------------------
  alpha Z        PSCENC =       355.61811601
  Ewald energy   TEWEN  =      1656.35033795
  -Hartree energ DENC   =    -15929.17715947
  -exchange      EXHF   =       698.60313258
  -V(xc)+E(xc)   XCENC  =       725.74610195
  PAW double counting   =     32475.28497517   -32451.95875636
  entropy T*S    EENTRO =        -0.00000000
  eigenvalues    EBANDS =     -3125.58856157
  atomic energy  EATOM  =     14963.80645821
  ---------------------------------------------------
  free energy    TOTEN  =      -631.31535554 eV

  energy without entropy =     -631.31535554  energy(sigma->0) =     -631.31535554
  exchange ACFDT corr.  =        -0.00000000  see jH, gK, PRB 81, 115126


--------------------------------------------------------------------------------------------------------




--------------------------------------- Iteration      1(   2)  ---------------------------------------


    POTLOK:  cpu time    0.1980: real time    0.1984
    SETDIJ:  cpu time    0.1728: real time    0.1733
    TRIAL :  cpu time  135.4200: real time  135.7208
    CORREC:  cpu time  129.2634: real time  129.5380
    CHARGE:  cpu time    0.0742: real time    0.0744
    --------------------------------------------
      LOOP:  cpu time  265.1337: real time  265.7208

 eigenvalue-minimisations  :     0
 total energy-change (2. order) :-0.2023841E-05  (-0.1647751E-05)
 number of electron     304.0000022 magnetization 
 augmentation part       31.4234403 magnetization 

 Free energy of the ion-electron system (eV)
  ---------------------------------------------------
  alpha Z        PSCENC =       355.61811601
  Ewald energy   TEWEN  =      1656.35033795
  -Hartree energ DENC   =    -15929.18198514
  -exchange      EXHF   =       698.60291568
  -V(xc)+E(xc)   XCENC  =       725.74602908
  PAW double counting   =     32475.32074445   -32451.99618572
  entropy T*S    EENTRO =        -0.00000000
  eigenvalues    EBANDS =     -3125.58178807
  atomic energy  EATOM  =     14963.80645821
  ---------------------------------------------------
  free energy    TOTEN  =      -631.31535756 eV

  energy without entropy =     -631.31535756  energy(sigma->0) =     -631.31535756
  exchange ACFDT corr.  =        -0.00000000  see jH, gK, PRB 81, 115126


--------------------------------------------------------------------------------------------------------




--------------------------------------- Iteration      1(   3)  ---------------------------------------


    POTLOK:  cpu time    0.1713: real time    0.1718
    SETDIJ:  cpu time    0.1707: real time    0.1712
    TRIAL :  cpu time  139.1664: real time  139.4634
    CORREC:  cpu time  123.0023: real time  123.2493
    EDDIAG:  cpu time  123.0212: real time  123.2730
    CHARGE:  cpu time    0.0733: real time    0.0734
    --------------------------------------------
      LOOP:  cpu time  385.6083: real time  386.4176

 eigenvalue-minimisations  :     0
 total energy-change (2. order) :-0.1701033E-05  (-0.8606059E-06)
 number of electron     304.0000022 magnetization 
 augmentation part       31.4234528 magnetization 

 Free energy of the ion-electron system (eV)
  ---------------------------------------------------
  alpha Z        PSCENC =       355.61811601
  Ewald energy   TEWEN  =      1656.35033795
  -Hartree energ DENC   =    -15929.17880263
  -exchange      EXHF   =       698.60257383
  -V(xc)+E(xc)   XCENC  =       725.74589138
  PAW double counting   =     32475.32500753   -32451.99986629
  entropy T*S    EENTRO =        -0.00000000
  eigenvalues    EBANDS =     -3125.58505593
  atomic energy  EATOM  =     14963.80645821
  ---------------------------------------------------
  free energy    TOTEN  =      -631.31535926 eV

  energy without entropy =     -631.31535926  energy(sigma->0) =     -631.31535926
  exchange ACFDT corr.  =        -0.00000000  see jH, gK, PRB 81, 115126


--------------------------------------------------------------------------------------------------------


  average scaling for gradient   0.9983


 average (electrostatic) potential at core
  the test charge radii are     1.0103  0.5201  1.2098  0.6991  0.7089
  (the norm of the test charge is              1.0000)
       1 -43.7261       2 -43.7264       3 -35.0614       4 -35.0614       5 -35.0613
       6 -35.0613       7 -35.0652       8 -35.0652       9 -35.0652      10 -35.0652
      11 -35.0986      12 -35.0986      13 -35.0986      14 -35.0986      15 -34.9930
      16 -34.9930      17 -34.9929      18 -34.9929      19 -68.4614      20 -68.4619
      21 -68.4620      22 -68.4616      23 -52.0817      24 -52.0821      25 -52.0825
      26 -52.0822      27 -52.0824      28 -52.0826      29 -52.0822      30 -52.0820
      31 -52.9262      32 -52.9262      33 -52.9261      34 -52.9261      35 -52.2946
      36 -52.2946      37 -52.2945      38 -52.2945      39 -52.9530      40 -52.9530
      41 -54.6077      42 -54.6077      43 -54.5921      44 -54.5921      45 -52.8728
      46 -52.8729      47 -52.2331      48 -52.2331      49 -52.2331      50 -52.2331
      51 -52.8400      52 -52.8400      53 -52.8400      54 -52.8400      55 -64.8374
      56 -64.8375      57 -64.8376      58 -64.8376      59 -64.8376      60 -64.8376
      61 -64.8375      62 -64.8375      63 -66.2263      64 -66.2263      65 -67.2167
      66 -67.2167      67 -67.2167      68 -67.2167      69 -67.2063      70 -67.2064
      71 -67.2063      72 -67.2063      73 -66.1624      74 -66.1624
 
 
 
 E-fermi :  -2.2079     XC(G=0):  -4.9317     alpha+bet : -4.5112


 k-point     1 :       0.0000    0.0000    0.0000
  band No.  band energies     occupation 
      1     -27.5872      2.00000
      2     -27.5863      2.00000
      3     -25.1533      2.00000
      4     -25.1517      2.00000
      5     -23.6852      2.00000
      6     -23.6845      2.00000
      7     -23.6295      2.00000
      8     -23.6254      2.00000
      9     -22.2136      2.00000
     10     -22.2114      2.00000
     11     -21.6242      2.00000
     12     -21.6218      2.00000
     13     -21.4888      2.00000
     14     -21.4839      2.00000
     15     -21.4343      2.00000
     16     -21.4258      2.00000
     17     -21.3957      2.00000
     18     -21.3893      2.00000
     19     -20.1208      2.00000
     20     -20.1157      2.00000
     21     -19.2007      2.00000
     22     -19.2004      2.00000
     23     -18.4715      2.00000
     24     -18.4588      2.00000
     25     -18.2825      2.00000
     26     -18.2447      2.00000
     27     -17.8805      2.00000
     28     -17.8677      2.00000
     29     -17.0942      2.00000
     30     -17.0594      2.00000
     31     -14.9184      2.00000
     32     -14.8825      2.00000
     33     -14.6634      2.00000
     34     -14.6510      2.00000
     35     -14.5895      2.00000
     36     -14.5235      2.00000
     37     -14.2528      2.00000
     38     -14.2292      2.00000
     39     -13.4132      2.00000
     40     -13.3870      2.00000
     41     -12.4731      2.00000
     42     -12.2302      2.00000
     43     -11.9908      2.00000
     44     -11.9874      2.00000
     45     -11.7682      2.00000
     46     -11.6580      2.00000
     47     -11.3858      2.00000
     48     -11.3143      2.00000
     49     -10.7304      2.00000
     50     -10.7250      2.00000
     51     -10.5023      2.00000
     52     -10.4964      2.00000
     53     -10.4052      2.00000
     54     -10.4045      2.00000
     55     -10.3207      2.00000
     56     -10.3185      2.00000
     57     -10.0896      2.00000
     58      -9.9182      2.00000
     59      -9.8011      2.00000
     60      -9.7964      2.00000
     61      -9.4727      2.00000
     62      -9.4723      2.00000
     63      -9.4578      2.00000
     64      -9.3254      2.00000
     65      -9.1992      2.00000
     66      -9.1488      2.00000
     67      -9.1433      2.00000
     68      -9.0803      2.00000
     69      -8.9144      2.00000
     70      -8.8859      2.00000
     71      -8.8003      2.00000
     72      -8.7251      2.00000
     73      -8.7232      2.00000
     74      -8.4525      2.00000
     75      -8.3584      2.00000
     76      -8.3569      2.00000
     77      -8.2448      2.00000
     78      -8.1748      2.00000
     79      -7.7053      2.00000
     80      -7.6974      2.00000
     81      -7.4884      2.00000
     82      -7.4627      2.00000
     83      -7.4306      2.00000
     84      -7.4226      2.00000
     85      -7.4151      2.00000
     86      -7.2040      2.00000
     87      -7.1042      2.00000
     88      -7.0574      2.00000
     89      -7.0170      2.00000
     90      -7.0095      2.00000
     91      -6.9287      2.00000
     92      -6.9244      2.00000
     93      -6.8484      2.00000
     94      -6.7965      2.00000
     95      -6.7886      2.00000
     96      -6.7752      2.00000
     97      -6.7282      2.00000
     98      -6.7209      2.00000
     99      -6.5886      2.00000
    100      -6.5498      2.00000
    101      -6.3495      2.00000
    102      -6.3052      2.00000
    103      -6.2786      2.00000
    104      -6.2442      2.00000
    105      -6.1237      2.00000
    106      -6.1135      2.00000
    107      -6.0567      2.00000
    108      -6.0022      2.00000
    109      -6.0010      2.00000
    110      -5.9336      2.00000
    111      -5.8529      2.00000
    112      -5.8290      2.00000
    113      -5.5889      2.00000
    114      -5.5778      2.00000
    115      -5.4947      2.00000
    116      -5.4865      2.00000
    117      -5.3821      2.00000
    118      -5.3711      2.00000
    119      -5.3427      2.00000
    120      -5.3224      2.00000
    121      -5.1907      2.00000
    122      -5.1731      2.00000
    123      -5.1121      2.00000
    124      -5.1118      2.00000
    125      -5.1080      2.00000
    126      -5.0361      2.00000
    127      -4.9493      2.00000
    128      -4.8564      2.00000
    129      -4.8309      2.00000
    130      -4.8181      2.00000
    131      -4.8086      2.00000
    132      -4.7957      2.00000
    133      -4.5471      2.00000
    134      -4.4210      2.00000
    135      -4.3430      2.00000
    136      -4.3383      2.00000
    137      -4.2994      2.00000
    138      -4.2951      2.00000
    139      -4.2229      2.00000
    140      -4.2201      2.00000
    141      -4.1664      2.00000
    142      -4.0382      2.00000
    143      -3.4832      2.00000
    144      -3.4358      2.00000
    145      -3.1981      2.00000
    146      -3.1431      2.00000
    147      -2.4741      2.00000
    148      -2.4716      2.00000
    149      -2.3130      2.00000
    150      -2.2958      2.00000
    151      -2.2685      2.00000
    152      -2.2530      2.00000
    153      -0.3049      0.00000
    154      -0.2678      0.00000
    155      -0.1980      0.00000
    156      -0.1147      0.00000
    157       1.4728      0.00000
    158       1.5211      0.00000
    159       1.7574      0.00000
    160       1.9489      0.00000
    161       2.1392      0.00000
    162       2.1789      0.00000
    163       2.3065      0.00000
    164       2.3399      0.00000
    165       2.3412      0.00000
    166       2.5534      0.00000
    167       2.6860      0.00000
    168       2.7684      0.00000
    169       2.8872      0.00000
    170       2.9494      0.00000
    171       2.9609      0.00000
    172       3.0996      0.00000
    173       3.2196      0.00000
    174       3.3908      0.00000
    175       3.4245      0.00000
    176       3.4569      0.00000
    177       3.8669      0.00000
    178       3.8762      0.00000
    179       4.2408      0.00000
    180       4.4463      0.00000
    181       4.5078      0.00000
    182       4.5506      0.00000
    183       4.6434      0.00000
    184       4.7306      0.00000
    185       4.7669      0.00000
    186       4.9765      0.00000
    187       4.9935      0.00000
    188       5.0432      0.00000
    189       5.0892      0.00000
    190       5.1654      0.00000
    191       5.1934      0.00000
    192       5.3420      0.00000

 k-point     2 :       0.5000    0.0000    0.0000
  band No.  band energies     occupation 
      1     -27.5867      2.00000
      2     -27.5867      2.00000
      3     -25.1525      2.00000
      4     -25.1525      2.00000
      5     -23.6848      2.00000
      6     -23.6847      2.00000
      7     -23.6275      2.00000
      8     -23.6275      2.00000
      9     -22.2125      2.00000
     10     -22.2125      2.00000
     11     -21.6158      2.00000
     12     -21.6148      2.00000
     13     -21.4973      2.00000
     14     -21.4961      2.00000
     15     -21.4380      2.00000
     16     -21.4370      2.00000
     17     -21.3835      2.00000
     18     -21.3823      2.00000
     19     -20.1182      2.00000
     20     -20.1182      2.00000
     21     -19.2005      2.00000
     22     -19.2005      2.00000
     23     -18.4652      2.00000
     24     -18.4652      2.00000
     25     -18.2643      2.00000
     26     -18.2643      2.00000
     27     -17.8742      2.00000
     28     -17.8742      2.00000
     29     -17.0761      2.00000
     30     -17.0761      2.00000
     31     -14.9033      2.00000
     32     -14.9033      2.00000
     33     -14.6546      2.00000
     34     -14.6546      2.00000
     35     -14.5568      2.00000
     36     -14.5568      2.00000
     37     -14.2406      2.00000
     38     -14.2406      2.00000
     39     -13.4014      2.00000
     40     -13.4014      2.00000
     41     -12.3333      2.00000
     42     -12.3332      2.00000
     43     -11.9824      2.00000
     44     -11.9824      2.00000
     45     -11.6068      2.00000
     46     -11.6062      2.00000
     47     -11.3678      2.00000
     48     -11.3663      2.00000
     49     -10.7277      2.00000
     50     -10.7277      2.00000
     51     -10.6182      2.00000
     52     -10.6179      2.00000
     53     -10.5008      2.00000
     54     -10.5008      2.00000
     55     -10.3907      2.00000
     56     -10.3906      2.00000
     57      -9.9614      2.00000
     58      -9.9614      2.00000
     59      -9.9415      2.00000
     60      -9.9415      2.00000
     61      -9.5355      2.00000
     62      -9.5353      2.00000
     63      -9.4213      2.00000
     64      -9.4211      2.00000
     65      -9.1777      2.00000
     66      -9.1777      2.00000
     67      -8.8704      2.00000
     68      -8.8704      2.00000
     69      -8.7444      2.00000
     70      -8.7444      2.00000
     71      -8.7211      2.00000
     72      -8.7211      2.00000
     73      -8.6700      2.00000
     74      -8.6698      2.00000
     75      -8.4444      2.00000
     76      -8.4443      2.00000
     77      -7.9158      2.00000
     78      -7.9157      2.00000
     79      -7.7006      2.00000
     80      -7.7006      2.00000
     81      -7.4274      2.00000
     82      -7.4273      2.00000
     83      -7.3052      2.00000
     84      -7.3051      2.00000
     85      -7.1530      2.00000
     86      -7.1530      2.00000
     87      -7.1335      2.00000
     88      -7.1335      2.00000
     89      -7.0690      2.00000
     90      -7.0690      2.00000
     91      -6.9934      2.00000
     92      -6.9934      2.00000
     93      -6.9587      2.00000
     94      -6.9586      2.00000
     95      -6.8823      2.00000
     96      -6.8823      2.00000
     97      -6.8090      2.00000
     98      -6.8090      2.00000
     99      -6.4895      2.00000
    100      -6.4893      2.00000
    101      -6.2713      2.00000
    102      -6.2711      2.00000
    103      -6.2313      2.00000
    104      -6.2311      2.00000
    105      -6.1671      2.00000
    106      -6.1670      2.00000
    107      -6.1360      2.00000
    108      -6.1355      2.00000
    109      -6.0213      2.00000
    110      -6.0212      2.00000
    111      -5.9523      2.00000
    112      -5.9522      2.00000
    113      -5.8744      2.00000
    114      -5.8742      2.00000
    115      -5.4898      2.00000
    116      -5.4897      2.00000
    117      -5.3713      2.00000
    118      -5.3713      2.00000
    119      -5.2651      2.00000
    120      -5.2650      2.00000
    121      -5.1318      2.00000
    122      -5.1316      2.00000
    123      -4.9918      2.00000
    124      -4.9916      2.00000
    125      -4.8639      2.00000
    126      -4.8638      2.00000
    127      -4.8084      2.00000
    128      -4.8082      2.00000
    129      -4.7024      2.00000
    130      -4.7021      2.00000
    131      -4.6340      2.00000
    132      -4.6338      2.00000
    133      -4.5923      2.00000
    134      -4.5919      2.00000
    135      -4.4495      2.00000
    136      -4.4495      2.00000
    137      -4.3145      2.00000
    138      -4.3144      2.00000
    139      -4.2706      2.00000
    140      -4.2706      2.00000
    141      -4.1202      2.00000
    142      -4.1202      2.00000
    143      -3.4652      2.00000
    144      -3.4651      2.00000
    145      -3.1758      2.00000
    146      -3.1757      2.00000
    147      -2.5738      2.00000
    148      -2.5736      2.00000
    149      -2.3835      2.00000
    150      -2.3833      2.00000
    151      -2.3417      2.00000
    152      -2.3415      2.00000
    153      -0.2860      0.00000
    154      -0.2860      0.00000
    155      -0.1489      0.00000
    156      -0.1489      0.00000
    157       1.5269      0.00000
    158       1.5269      0.00000
    159       1.9788      0.00000
    160       1.9789      0.00000
    161       2.2156      0.00000
    162       2.2157      0.00000
    163       2.3342      0.00000
    164       2.3344      0.00000
    165       2.3633      0.00000
    166       2.3633      0.00000
    167       2.7154      0.00000
    168       2.7157      0.00000
    169       2.9222      0.00000
    170       2.9223      0.00000
    171       3.1961      0.00000
    172       3.1961      0.00000
    173       3.3601      0.00000
    174       3.3604      0.00000
    175       3.5096      0.00000
    176       3.5096      0.00000
    177       3.6396      0.00000
    178       3.6396      0.00000
    179       4.2564      0.00000
    180       4.2870      0.00000
    181       4.6034      0.00000
    182       4.6793      0.00000
    183       4.8578      0.00000
    184       4.8658      0.00000
    185       4.9461      0.00000
    186       4.9633      0.00000
    187       5.0108      0.00000
    188       5.0471      0.00000
    189       5.0724      0.00000
    190       5.1721      0.00000
    191       5.2439      0.00000
    192       5.3390      0.00000

 k-point     3 :       0.0000    0.5000    0.0000
  band No.  band energies     occupation 
      1     -27.5867      2.00000
      2     -27.5867      2.00000
      3     -25.1525      2.00000
      4     -25.1525      2.00000
      5     -23.6848      2.00000
      6     -23.6847      2.00000
      7     -23.6275      2.00000
      8     -23.6275      2.00000
      9     -22.2125      2.00000
     10     -22.2125      2.00000
     11     -21.6158      2.00000
     12     -21.6147      2.00000
     13     -21.4972      2.00000
     14     -21.4962      2.00000
     15     -21.4381      2.00000
     16     -21.4368      2.00000
     17     -21.3835      2.00000
     18     -21.3823      2.00000
     19     -20.1182      2.00000
     20     -20.1182      2.00000
     21     -19.2005      2.00000
     22     -19.2005      2.00000
     23     -18.4652      2.00000
     24     -18.4652      2.00000
     25     -18.2643      2.00000
     26     -18.2643      2.00000
     27     -17.8742      2.00000
     28     -17.8742      2.00000
     29     -17.0761      2.00000
     30     -17.0761      2.00000
     31     -14.9033      2.00000
     32     -14.9033      2.00000
     33     -14.6546      2.00000
     34     -14.6546      2.00000
     35     -14.5568      2.00000
     36     -14.5568      2.00000
     37     -14.2406      2.00000
     38     -14.2406      2.00000
     39     -13.4014      2.00000
     40     -13.4014      2.00000
     41     -12.3333      2.00000
     42     -12.3332      2.00000
     43     -11.9824      2.00000
     44     -11.9824      2.00000
     45     -11.6070      2.00000
     46     -11.6059      2.00000
     47     -11.3674      2.00000
     48     -11.3667      2.00000
     49     -10.7277      2.00000
     50     -10.7277      2.00000
     51     -10.6182      2.00000
     52     -10.6178      2.00000
     53     -10.5008      2.00000
     54     -10.5008      2.00000
     55     -10.3907      2.00000
     56     -10.3906      2.00000
     57      -9.9614      2.00000
     58      -9.9614      2.00000
     59      -9.9415      2.00000
     60      -9.9415      2.00000
     61      -9.5355      2.00000
     62      -9.5354      2.00000
     63      -9.4215      2.00000
     64      -9.4209      2.00000
     65      -9.1777      2.00000
     66      -9.1777      2.00000
     67      -8.8704      2.00000
     68      -8.8704      2.00000
     69      -8.7444      2.00000
     70      -8.7444      2.00000
     71      -8.7211      2.00000
     72      -8.7211      2.00000
     73      -8.6700      2.00000
     74      -8.6698      2.00000
     75      -8.4444      2.00000
     76      -8.4443      2.00000
     77      -7.9158      2.00000
     78      -7.9157      2.00000
     79      -7.7006      2.00000
     80      -7.7006      2.00000
     81      -7.4274      2.00000
     82      -7.4273      2.00000
     83      -7.3052      2.00000
     84      -7.3051      2.00000
     85      -7.1530      2.00000
     86      -7.1530      2.00000
     87      -7.1335      2.00000
     88      -7.1335      2.00000
     89      -7.0690      2.00000
     90      -7.0690      2.00000
     91      -6.9934      2.00000
     92      -6.9934      2.00000
     93      -6.9587      2.00000
     94      -6.9586      2.00000
     95      -6.8823      2.00000
     96      -6.8823      2.00000
     97      -6.8091      2.00000
     98      -6.8090      2.00000
     99      -6.4895      2.00000
    100      -6.4893      2.00000
    101      -6.2712      2.00000
    102      -6.2711      2.00000
    103      -6.2314      2.00000
    104      -6.2310      2.00000
    105      -6.1671      2.00000
    106      -6.1670      2.00000
    107      -6.1358      2.00000
    108      -6.1356      2.00000
    109      -6.0214      2.00000
    110      -6.0211      2.00000
    111      -5.9523      2.00000
    112      -5.9522      2.00000
    113      -5.8746      2.00000
    114      -5.8740      2.00000
    115      -5.4898      2.00000
    116      -5.4897      2.00000
    117      -5.3713      2.00000
    118      -5.3713      2.00000
    119      -5.2651      2.00000
    120      -5.2650      2.00000
    121      -5.1318      2.00000
    122      -5.1317      2.00000
    123      -4.9918      2.00000
    124      -4.9915      2.00000
    125      -4.8639      2.00000
    126      -4.8638      2.00000
    127      -4.8084      2.00000
    128      -4.8082      2.00000
    129      -4.7024      2.00000
    130      -4.7021      2.00000
    131      -4.6340      2.00000
    132      -4.6339      2.00000
    133      -4.5922      2.00000
    134      -4.5920      2.00000
    135      -4.4495      2.00000
    136      -4.4494      2.00000
    137      -4.3145      2.00000
    138      -4.3144      2.00000
    139      -4.2706      2.00000
    140      -4.2706      2.00000
    141      -4.1202      2.00000
    142      -4.1202      2.00000
    143      -3.4652      2.00000
    144      -3.4651      2.00000
    145      -3.1758      2.00000
    146      -3.1757      2.00000
    147      -2.5738      2.00000
    148      -2.5736      2.00000
    149      -2.3834      2.00000
    150      -2.3834      2.00000
    151      -2.3416      2.00000
    152      -2.3415      2.00000
    153      -0.2860      0.00000
    154      -0.2860      0.00000
    155      -0.1489      0.00000
    156      -0.1489      0.00000
    157       1.5269      0.00000
    158       1.5269      0.00000
    159       1.9787      0.00000
    160       1.9790      0.00000
    161       2.2156      0.00000
    162       2.2156      0.00000
    163       2.3341      0.00000
    164       2.3344      0.00000
    165       2.3633      0.00000
    166       2.3634      0.00000
    167       2.7155      0.00000
    168       2.7156      0.00000
    169       2.9222      0.00000
    170       2.9223      0.00000
    171       3.1961      0.00000
    172       3.1961      0.00000
    173       3.3601      0.00000
    174       3.3604      0.00000
    175       3.5095      0.00000
    176       3.5098      0.00000
    177       3.6395      0.00000
    178       3.6397      0.00000
    179       4.2579      0.00000
    180       4.2916      0.00000
    181       4.6054      0.00000
    182       4.6493      0.00000
    183       4.8636      0.00000
    184       4.8774      0.00000
    185       4.9282      0.00000
    186       4.9596      0.00000
    187       4.9901      0.00000
    188       5.0577      0.00000
    189       5.1094      0.00000
    190       5.1884      0.00000
    191       5.2339      0.00000
    192       5.3745      0.00000

 k-point     4 :       0.5000    0.5000    0.0000
  band No.  band energies     occupation 
      1     -27.5871      2.00000
      2     -27.5863      2.00000
      3     -25.1533      2.00000
      4     -25.1517      2.00000
      5     -23.6851      2.00000
      6     -23.6844      2.00000
      7     -23.6295      2.00000
      8     -23.6254      2.00000
      9     -22.2136      2.00000
     10     -22.2114      2.00000
     11     -21.6073      2.00000
     12     -21.6058      2.00000
     13     -21.5073      2.00000
     14     -21.5010      2.00000
     15     -21.4529      2.00000
     16     -21.4431      2.00000
     17     -21.3766      2.00000
     18     -21.3714      2.00000
     19     -20.1207      2.00000
     20     -20.1156      2.00000
     21     -19.2007      2.00000
     22     -19.2003      2.00000
     23     -18.4715      2.00000
     24     -18.4588      2.00000
     25     -18.2826      2.00000
     26     -18.2448      2.00000
     27     -17.8805      2.00000
     28     -17.8677      2.00000
     29     -17.0941      2.00000
     30     -17.0593      2.00000
     31     -14.9190      2.00000
     32     -14.8832      2.00000
     33     -14.6633      2.00000
     34     -14.6509      2.00000
     35     -14.5894      2.00000
     36     -14.5235      2.00000
     37     -14.2528      2.00000
     38     -14.2288      2.00000
     39     -13.4141      2.00000
     40     -13.3876      2.00000
     41     -12.4489      2.00000
     42     -12.1683      2.00000
     43     -11.9898      2.00000
     44     -11.9875      2.00000
     45     -11.4134      2.00000
     46     -11.4017      2.00000
     47     -11.3432      2.00000
     48     -11.3293      2.00000
     49     -11.0386      2.00000
     50     -11.0216      2.00000
     51     -10.7305      2.00000
     52     -10.7244      2.00000
     53     -10.5024      2.00000
     54     -10.4924      2.00000
     55     -10.3825      2.00000
     56     -10.3725      2.00000
     57     -10.1089      2.00000
     58     -10.0171      2.00000
     59      -9.8631      2.00000
     60      -9.8184      2.00000
     61      -9.5292      2.00000
     62      -9.4698      2.00000
     63      -9.3811      2.00000
     64      -9.3577      2.00000
     65      -9.2049      2.00000
     66      -9.1989      2.00000
     67      -9.0944      2.00000
     68      -8.9104      2.00000
     69      -8.7976      2.00000
     70      -8.7454      2.00000
     71      -8.7381      2.00000
     72      -8.7138      2.00000
     73      -8.7052      2.00000
     74      -8.6211      2.00000
     75      -8.0679      2.00000
     76      -8.0577      2.00000
     77      -7.8884      2.00000
     78      -7.8331      2.00000
     79      -7.7052      2.00000
     80      -7.6974      2.00000
     81      -7.3894      2.00000
     82      -7.3622      2.00000
     83      -7.3537      2.00000
     84      -7.1923      2.00000
     85      -7.1423      2.00000
     86      -7.1388      2.00000
     87      -7.0805      2.00000
     88      -7.0635      2.00000
     89      -7.0526      2.00000
     90      -7.0503      2.00000
     91      -7.0293      2.00000
     92      -6.9744      2.00000
     93      -6.9334      2.00000
     94      -6.9124      2.00000
     95      -6.9084      2.00000
     96      -6.8793      2.00000
     97      -6.8181      2.00000
     98      -6.7960      2.00000
     99      -6.7302      2.00000
    100      -6.6736      2.00000
    101      -6.6172      2.00000
    102      -6.4863      2.00000
    103      -6.4576      2.00000
    104      -6.3068      2.00000
    105      -6.1655      2.00000
    106      -6.1653      2.00000
    107      -6.1273      2.00000
    108      -6.1137      2.00000
    109      -6.1009      2.00000
    110      -6.0912      2.00000
    111      -6.0289      2.00000
    112      -5.8794      2.00000
    113      -5.5914      2.00000
    114      -5.5399      2.00000
    115      -5.4979      2.00000
    116      -5.4859      2.00000
    117      -5.4127      2.00000
    118      -5.4097      2.00000
    119      -5.3864      2.00000
    120      -5.3815      2.00000
    121      -5.0728      2.00000
    122      -5.0485      2.00000
    123      -4.9387      2.00000
    124      -4.8935      2.00000
    125      -4.8223      2.00000
    126      -4.7957      2.00000
    127      -4.7749      2.00000
    128      -4.7389      2.00000
    129      -4.7319      2.00000
    130      -4.7300      2.00000
    131      -4.5570      2.00000
    132      -4.5390      2.00000
    133      -4.5331      2.00000
    134      -4.5147      2.00000
[...]
 -----------------------------------------------------------------------------
  energy-cutoff  :      520.00
  volume of cell :     1473.32
      direct lattice vectors                 reciprocal lattice vectors
     2.643619359 -9.722767199 -0.000025408    -0.000479888 -0.102981859 -0.000000104
    10.075645748 -0.046951751 -0.000035465     0.099375133  0.027020088  0.000000033
    -0.000000822 -0.000015247 15.058598021     0.000000233 -0.000000110  0.066407244

  length of vectors
    10.075759293 10.075755144 15.058598021     0.102982977  0.102983019  0.066407244


 FORCES acting on ions:
    Electron-Ion                     Ewald-Force                    Non-Local-Force
 -----------------------------------------------------------------------------------------------
   0.834E-03 -.181E-03 -.156E+03   -.790E-03 0.118E-03 0.156E+03   0.149E-03 -.156E-03 0.817E-01
   0.177E-02 0.492E-03 0.156E+03   -.185E-02 -.468E-03 -.156E+03   -.124E-03 0.646E-04 -.818E-01
   0.375E+02 0.489E+02 -.184E+02   -.407E+02 -.530E+02 0.150E+02   0.308E+01 0.401E+01 0.326E+01
   -.375E+02 -.489E+02 -.184E+02   0.407E+02 0.530E+02 0.150E+02   -.308E+01 -.401E+01 0.326E+01
   -.375E+02 -.489E+02 0.184E+02   0.407E+02 0.530E+02 -.150E+02   -.308E+01 -.401E+01 -.326E+01
   0.375E+02 0.489E+02 0.184E+02   -.407E+02 -.530E+02 -.150E+02   0.308E+01 0.401E+01 -.326E+01
   0.331E+02 0.431E+02 -.346E+02   -.364E+02 -.474E+02 0.375E+02   0.320E+01 0.417E+01 -.277E+01
   -.331E+02 -.431E+02 -.346E+02   0.364E+02 0.474E+02 0.375E+02   -.320E+01 -.417E+01 -.277E+01
   -.331E+02 -.431E+02 0.346E+02   0.364E+02 0.474E+02 -.375E+02   -.320E+01 -.417E+01 0.277E+01
   0.331E+02 0.431E+02 0.346E+02   -.364E+02 -.474E+02 -.375E+02   0.320E+01 0.417E+01 0.277E+01
   0.272E+02 0.354E+02 0.519E+02   -.305E+02 -.397E+02 -.547E+02   0.321E+01 0.417E+01 0.275E+01
   -.272E+02 -.354E+02 0.519E+02   0.305E+02 0.397E+02 -.547E+02   -.321E+01 -.417E+01 0.275E+01
   -.272E+02 -.354E+02 -.519E+02   0.305E+02 0.397E+02 0.547E+02   -.321E+01 -.417E+01 -.275E+01
   0.272E+02 0.354E+02 -.519E+02   -.305E+02 -.397E+02 0.547E+02   0.321E+01 0.417E+01 -.275E+01
   0.317E+02 0.412E+02 -.805E+01   -.349E+02 -.454E+02 0.115E+02   0.308E+01 0.401E+01 -.328E+01
   -.317E+02 -.412E+02 -.805E+01   0.349E+02 0.454E+02 0.115E+02   -.308E+01 -.401E+01 -.328E+01
   -.317E+02 -.412E+02 0.805E+01   0.349E+02 0.454E+02 -.115E+02   -.308E+01 -.401E+01 0.328E+01
   0.317E+02 0.412E+02 0.805E+01   -.349E+02 -.454E+02 -.115E+02   0.308E+01 0.401E+01 0.328E+01
   0.239E-02 -.120E-01 -.349E+03   -.219E-02 0.116E-01 0.350E+03   -.588E-03 0.154E-02 -.666E+00
   -.123E-01 0.460E-03 0.349E+03   0.119E-01 -.424E-03 -.350E+03   0.140E-02 -.127E-03 0.666E+00
   -.170E-02 0.347E-02 0.349E+03   0.159E-02 -.333E-02 -.350E+03   0.227E-03 -.484E-03 0.666E+00
   0.435E-02 0.138E-02 -.349E+03   -.407E-02 -.146E-02 0.350E+03   -.895E-03 0.115E-03 -.666E+00
   -.706E+02 0.143E+03 -.985E+02   0.749E+02 -.155E+03 0.978E+02   -.389E+01 0.108E+02 0.662E+00
   0.706E+02 -.143E+03 -.985E+02   -.749E+02 0.155E+03 0.978E+02   0.389E+01 -.108E+02 0.662E+00
   -.156E+03 0.313E+02 0.985E+02   0.169E+03 -.324E+02 -.978E+02   -.114E+02 0.972E+00 -.662E+00
   0.156E+03 -.313E+02 0.985E+02   -.169E+03 0.324E+02 -.978E+02   0.114E+02 -.973E+00 -.662E+00
   0.706E+02 -.143E+03 0.985E+02   -.748E+02 0.155E+03 -.978E+02   0.389E+01 -.108E+02 -.662E+00
   -.706E+02 0.143E+03 0.985E+02   0.748E+02 -.155E+03 -.978E+02   -.389E+01 0.108E+02 -.662E+00
   0.156E+03 -.313E+02 -.985E+02   -.169E+03 0.324E+02 0.978E+02   0.114E+02 -.973E+00 0.662E+00
   -.157E+03 0.313E+02 -.985E+02   0.169E+03 -.324E+02 0.978E+02   -.114E+02 0.972E+00 0.662E+00
   0.971E+02 0.126E+03 -.133E+03   -.100E+03 -.130E+03 0.134E+03   0.301E+01 0.392E+01 -.859E+00
   -.971E+02 -.126E+03 -.133E+03   0.100E+03 0.130E+03 0.134E+03   -.301E+01 -.392E+01 -.859E+00
   -.971E+02 -.126E+03 0.133E+03   0.100E+03 0.130E+03 -.134E+03   -.301E+01 -.392E+01 0.859E+00
   0.971E+02 0.126E+03 0.133E+03   -.100E+03 -.130E+03 -.134E+03   0.301E+01 0.392E+01 0.860E+00
   0.814E+02 0.106E+03 -.122E+03   -.831E+02 -.108E+03 0.123E+03   0.158E+01 0.205E+01 -.859E+00
   -.814E+02 -.106E+03 -.122E+03   0.831E+02 0.108E+03 0.123E+03   -.158E+01 -.205E+01 -.860E+00
   -.814E+02 -.106E+03 0.122E+03   0.831E+02 0.108E+03 -.123E+03   -.158E+01 -.205E+01 0.860E+00
   0.814E+02 0.106E+03 0.122E+03   -.831E+02 -.108E+03 -.123E+03   0.158E+01 0.205E+01 0.860E+00
   -.128E-02 0.144E-02 -.704E+02   0.128E-02 -.143E-02 0.689E+02   0.172E-06 0.196E-04 0.147E+01
   -.457E-03 -.655E-03 0.704E+02   0.463E-03 0.664E-03 -.689E+02   0.244E-04 0.934E-05 -.147E+01
   -.719E-03 0.111E-02 0.924E+02   0.668E-03 -.110E-02 -.961E+02   0.184E-04 -.345E-04 0.348E+01
   -.476E-03 -.368E-03 -.924E+02   0.490E-03 0.350E-03 0.961E+02   -.102E-04 0.917E-06 -.348E+01
   0.274E-02 -.825E-03 0.264E+02   -.282E-02 0.860E-03 -.226E+02   0.758E-04 -.580E-04 -.356E+01
   -.179E-02 -.423E-03 -.264E+02   0.181E-02 0.422E-03 0.226E+02   -.374E-04 -.112E-04 0.356E+01
   0.262E-02 -.101E-02 0.137E+03   -.262E-02 0.103E-02 -.135E+03   0.291E-04 0.738E-05 -.151E+01
   -.195E-02 -.358E-03 -.137E+03   0.195E-02 0.358E-03 0.135E+03   -.122E-04 -.466E-05 0.151E+01
   0.628E+02 0.818E+02 0.153E+03   -.643E+02 -.838E+02 -.154E+03   0.147E+01 0.191E+01 0.732E+00
   -.628E+02 -.818E+02 0.153E+03   0.643E+02 0.838E+02 -.154E+03   -.147E+01 -.191E+01 0.732E+00
   -.628E+02 -.818E+02 -.153E+03   0.643E+02 0.838E+02 0.154E+03   -.147E+01 -.191E+01 -.732E+00
   0.628E+02 0.818E+02 -.153E+03   -.643E+02 -.838E+02 0.154E+03   0.147E+01 0.191E+01 -.732E+00
   0.793E+02 0.103E+03 0.739E+02   -.825E+02 -.107E+03 -.748E+02   0.305E+01 0.398E+01 0.839E+00
   -.793E+02 -.103E+03 0.739E+02   0.825E+02 0.107E+03 -.748E+02   -.305E+01 -.398E+01 0.839E+00
   -.793E+02 -.103E+03 -.739E+02   0.825E+02 0.107E+03 0.748E+02   -.305E+01 -.398E+01 -.840E+00
   0.793E+02 0.103E+03 -.739E+02   -.825E+02 -.107E+03 0.748E+02   0.305E+01 0.398E+01 -.840E+00
   -.280E+02 0.684E+02 -.117E+03   0.197E+02 -.416E+02 0.118E+03   0.747E+01 -.241E+02 -.130E+01
   0.280E+02 -.684E+02 -.117E+03   -.197E+02 0.416E+02 0.118E+03   -.747E+01 0.241E+02 -.130E+01
   -.733E+02 0.938E+01 0.117E+03   0.453E+02 -.832E+01 -.118E+03   0.252E+02 -.101E+01 0.130E+01
   0.733E+02 -.938E+01 0.117E+03   -.453E+02 0.831E+01 -.118E+03   -.252E+02 0.101E+01 0.130E+01
   0.280E+02 -.684E+02 0.117E+03   -.197E+02 0.416E+02 -.118E+03   -.747E+01 0.241E+02 0.130E+01
   -.280E+02 0.685E+02 0.117E+03   0.197E+02 -.417E+02 -.118E+03   0.747E+01 -.241E+02 0.130E+01
   0.733E+02 -.938E+01 -.117E+03   -.453E+02 0.831E+01 0.118E+03   -.252E+02 0.101E+01 -.130E+01
   -.733E+02 0.938E+01 -.117E+03   0.453E+02 -.832E+01 0.118E+03   0.252E+02 -.101E+01 -.130E+01
   0.249E-03 0.954E-04 -.155E+03   -.378E-03 0.961E-04 0.130E+03   0.134E-03 -.134E-03 0.225E+02
   0.159E-02 -.938E-03 0.155E+03   -.168E-02 0.971E-03 -.130E+03   0.138E-03 -.791E-05 -.225E+02
   0.127E+03 0.165E+03 0.157E+03   -.147E+03 -.191E+03 -.179E+03   0.185E+02 0.241E+02 0.202E+02
   -.127E+03 -.165E+03 0.157E+03   0.147E+03 0.191E+03 -.179E+03   -.185E+02 -.241E+02 0.202E+02
   -.127E+03 -.165E+03 -.157E+03   0.147E+03 0.191E+03 0.179E+03   -.185E+02 -.241E+02 -.202E+02
   0.127E+03 0.165E+03 -.157E+03   -.147E+03 -.191E+03 0.179E+03   0.185E+02 0.241E+02 -.202E+02
   0.122E+03 0.159E+03 0.109E+02   -.142E+03 -.185E+03 0.112E+02   0.185E+02 0.241E+02 -.202E+02
   -.122E+03 -.159E+03 0.109E+02   0.142E+03 0.185E+03 0.112E+02   -.185E+02 -.241E+02 -.202E+02
   -.122E+03 -.159E+03 -.109E+02   0.142E+03 0.185E+03 -.112E+02   -.185E+02 -.241E+02 0.202E+02
   0.122E+03 0.159E+03 -.109E+02   -.142E+03 -.185E+03 -.112E+02   0.185E+02 0.241E+02 0.202E+02
   0.123E-02 -.129E-02 0.378E+02   -.125E-02 0.140E-02 -.137E+02   0.321E-04 -.594E-04 -.222E+02
   0.204E-03 -.120E-02 -.378E+02   -.223E-03 0.130E-02 0.137E+02   0.579E-04 -.305E-04 0.222E+02
 -----------------------------------------------------------------------------------------------
   -.310E-03 -.651E-04 0.315E-02   0.171E-12 0.967E-13 0.345E-12   0.306E-03 0.134E-03 -.274E-02
 
 
 POSITION                                       TOTAL-FORCE (eV/Angst)
 -----------------------------------------------------------------------------------
      3.17980     -2.44242      9.26738         0.000147     -0.000169     -0.000667
      9.53944     -7.32730      5.79117        -0.000143      0.000085      0.000677
      1.92889     -4.07104     11.37566        -0.000518     -0.000660     -0.009069
      4.43074     -0.81382     11.37566         0.000493      0.000629     -0.009054
     10.79039     -5.69872      3.68292         0.000352      0.000463      0.008845
      8.28849     -8.95590      3.68291        -0.000375     -0.000492      0.008855
      1.86852     -4.14966     13.84099        -0.007908     -0.010312      0.011848
      4.49113     -0.73523     13.84100         0.007904      0.010272      0.011839
     10.85078     -5.62011      1.21759         0.007915      0.010321     -0.011968
      8.22812     -9.03450      1.21757        -0.007960     -0.010352     -0.011989
      1.87143     -4.14585      4.70787        -0.006200     -0.008057     -0.008477
      4.48819     -0.73901      4.70787         0.006213      0.008091     -0.008491
     10.84784     -5.62389     10.35066         0.006216      0.008106      0.008611
      8.23106     -9.03072     10.35067        -0.006210     -0.008093      0.008599
      1.92943     -4.07031      7.16821         0.001678      0.002199      0.009188
      4.43018     -0.81453      7.16821        -0.001705     -0.002219      0.009209
     10.78981     -5.69941      7.89032        -0.001843     -0.002395     -0.008988
      8.28907     -8.95519      7.89033         0.001833      0.002378     -0.008983
      4.50163     -7.30381      9.13160        -0.000336      0.000910      0.055383
      4.50161     -7.30379      5.92691         0.000821     -0.000083     -0.055205
      8.21764     -2.46591      5.92686         0.000096     -0.000293     -0.055162
      8.21763     -2.46590      9.13157        -0.000531      0.000017      0.055350
      3.81858     -5.45456      9.19638         0.116931     -0.349833     -0.015216
      5.18464     -9.15299      9.19637        -0.113506      0.339027     -0.014716
      2.53893     -7.12074      5.86218         0.342295     -0.021565      0.014042
      6.46435     -7.48687      5.86213        -0.352147      0.022016      0.014521
      8.90064     -4.31502      5.86212        -0.109464      0.326277      0.014113
      7.53463     -0.61684      5.86213         0.108253     -0.322521      0.013935
     10.18038     -2.64898      9.19634        -0.353111      0.022073     -0.014517
      6.25484     -2.28283      9.19637         0.359697     -0.022367     -0.014844
      2.48212     -3.35079     11.95804        -0.002537     -0.003295     -0.000087
      3.87752     -1.53409     11.95804         0.002531      0.003306     -0.000097
     10.23715     -6.41896      3.10052         0.002703      0.003506      0.000534
      8.84173     -8.23565      3.10051        -0.002690     -0.003500      0.000504
      2.45160     -3.39053     13.33824         0.007014      0.009115     -0.019388
      3.90805     -1.49436     13.33824        -0.007007     -0.009119     -0.019410
     10.26768     -6.37923      1.72033        -0.006941     -0.009025      0.019257
      8.81121     -8.27538      1.72032         0.006928      0.009054      0.019281
      3.17983     -2.44245     14.05139         0.000007      0.000036      0.001998
      9.53945     -7.32730      1.00718         0.000032      0.000019     -0.002385
      3.17984     -2.44244      0.46208        -0.000032     -0.000025      0.013823
      9.53945     -7.32731     14.59648         0.000003     -0.000017     -0.014012
      3.17982     -2.44244      3.02666        -0.000005     -0.000026     -0.003240
      9.53945     -7.32730     12.03189        -0.000019     -0.000013      0.003316
      3.17981     -2.44243      4.49389         0.000034      0.000026      0.002977
      9.53945     -7.32730     10.56465        -0.000012     -0.000005     -0.002698
      2.45317     -3.38846      5.20774         0.008197      0.010648      0.002331
      3.90645     -1.49639      5.20774        -0.008233     -0.010716      0.002324
     10.26609     -6.38127      9.85080        -0.008187     -0.010663     -0.002046
      8.81280     -8.27333      9.85081         0.008172      0.010657     -0.002058
      2.48203     -3.35087      6.58564        -0.002989     -0.003904      0.015315
      3.87758     -1.53398      6.58564         0.002962      0.003880      0.015348
     10.23722     -6.41886      8.47291         0.003048      0.003961     -0.016012
      8.84167     -8.23575      8.47292        -0.003080     -0.003994     -0.015941
      3.47311     -4.35378      9.25040        -0.083993      0.449478      0.009431
      2.88651     -0.53108      9.25041         0.080911     -0.439441      0.008975
     11.46175     -7.11778      5.80814        -0.432427     -0.035692     -0.008374
      7.61710     -7.53681      5.80814         0.441580      0.035334     -0.008765
      9.24615     -5.41597      5.80813         0.077410     -0.428215     -0.008443
      9.83271     -9.23863      5.80813        -0.076277      0.424697     -0.008247
      1.25748     -2.65195      9.25040         0.442121      0.035330      0.008832
      5.10214     -2.23291      9.25040        -0.448288     -0.035054      0.009099
      3.17982     -2.44244     11.27023         0.000015      0.000047      0.016130
      9.53943     -7.32730      3.78832         0.000065      0.000025     -0.016072
      2.46049     -3.37900      1.09415         0.008752      0.011373      0.006558
      3.89919     -1.50589      1.09415        -0.008741     -0.011354      0.006513
     10.25881     -6.39077     13.96441        -0.008761     -0.011411     -0.006129
      8.82009     -8.26385     13.96440         0.008760      0.011395     -0.006148
      2.46033     -3.37920      2.39485         0.008006      0.010420     -0.003144
      3.89934     -1.50569      2.39485        -0.008011     -0.010412     -0.003079
     10.25896     -6.39056     12.66371        -0.008008     -0.010447      0.002745
      8.81993     -8.26405     12.66371         0.008039      0.010451      0.002783
      3.17981     -2.44242      7.27138         0.000019      0.000049     -0.026327
      9.53944     -7.32730      7.78717         0.000044      0.000069      0.026360
 -----------------------------------------------------------------------------------
    total drift:                                0.000017     -0.000027      0.000093


--------------------------------------------------------------------------------------------------------



  FREE ENERGIE OF THE ION-ELECTRON SYSTEM (eV)
  ---------------------------------------------------
  free  energy   TOTEN  =      -636.50491991 eV

  energy  without entropy=     -636.50491991  energy(sigma->0) =     -636.50491991
 


--------------------------------------------------------------------------------------------------------


    POTLOK:  cpu time    0.3623: real time    0.3641


--------------------------------------------------------------------------------------------------------


 writing wavefunctions
     LOOP+:  cpu time 1041.2265: real time 1045.0323
    4ORBIT:  cpu time    0.0000: real time    0.0000
 


 total charge     
 
# of ion       s       p       d       tot
------------------------------------------
    1        0.420   0.706   6.395   7.521
    2        0.420   0.706   6.395   7.521
    3        0.657   0.051   0.000   0.707
    4        0.657   0.051   0.000   0.707
    5        0.657   0.051   0.000   0.707
    6        0.657   0.051   0.000   0.707
    7        0.643   0.051   0.000   0.694
    8        0.643   0.051   0.000   0.694
    9        0.643   0.051   0.000   0.694
   10        0.643   0.051   0.000   0.694
   11        0.650   0.051   0.000   0.701
   12        0.650   0.051   0.000   0.701
   13        0.650   0.051   0.000   0.701
   14        0.650   0.051   0.000   0.701
   15        0.658   0.051   0.000   0.708
   16        0.658   0.051   0.000   0.708
   17        0.658   0.051   0.000   0.708
   18        0.658   0.051   0.000   0.708
   19        0.734   0.370   8.798   9.902
   20        0.734   0.370   8.798   9.902
   21        0.734   0.370   8.798   9.902
   22        0.734   0.370   8.798   9.902
   23        0.955   1.674   0.000   2.629
   24        0.955   1.674   0.000   2.629
   25        0.955   1.674   0.000   2.629
   26        0.955   1.674   0.000   2.629
   27        0.955   1.674   0.000   2.629
   28        0.955   1.674   0.000   2.629
   29        0.955   1.674   0.000   2.629
   30        0.955   1.674   0.000   2.629
   31        0.883   1.768   0.000   2.651
   32        0.883   1.768   0.000   2.651
   33        0.883   1.768   0.000   2.651
   34        0.883   1.768   0.000   2.651
   35        0.882   1.793   0.000   2.676
   36        0.882   1.793   0.000   2.676
   37        0.882   1.793   0.000   2.676
   38        0.882   1.793   0.000   2.676
   39        0.876   1.787   0.000   2.663
   40        0.876   1.787   0.000   2.663
   41        0.882   1.766   0.000   2.648
   42        0.882   1.766   0.000   2.648
   43        0.882   1.766   0.000   2.648
   44        0.882   1.766   0.000   2.648
   45        0.877   1.791   0.000   2.668
   46        0.877   1.791   0.000   2.668
   47        0.883   1.796   0.000   2.680
   48        0.883   1.796   0.000   2.680
   49        0.883   1.796   0.000   2.680
   50        0.883   1.796   0.000   2.680
   51        0.884   1.770   0.000   2.654
   52        0.884   1.770   0.000   2.654
   53        0.884   1.770   0.000   2.654
   54        0.884   1.770   0.000   2.654
   55        1.312   2.615   0.000   3.928
   56        1.312   2.615   0.000   3.928
   57        1.312   2.615   0.000   3.928
   58        1.312   2.615   0.000   3.928
   59        1.312   2.615   0.000   3.928
   60        1.312   2.615   0.000   3.928
   61        1.312   2.615   0.000   3.928
   62        1.312   2.615   0.000   3.928
   63        1.254   2.676   0.000   3.931
   64        1.254   2.676   0.000   3.931
   65        1.286   2.580   0.000   3.866
   66        1.286   2.580   0.000   3.866
   67        1.286   2.580   0.000   3.866
   68        1.286   2.580   0.000   3.866
   69        1.286   2.579   0.000   3.866
   70        1.286   2.579   0.000   3.866
   71        1.286   2.579   0.000   3.866
   72        1.286   2.579   0.000   3.866
   73        1.254   2.679   0.000   3.934
   74        1.254   2.679   0.000   3.934
--------------------------------------------------
tot         68.815 112.099  47.983 228.897
 

 total amount of memory used by VASP MPI-rank0    81140. kBytes
=======================================================================

   base      :      30000. kBytes
   nonl-proj :       6729. kBytes
   fftplans  :       4322. kBytes
   grid      :       7214. kBytes
   one-center:         62. kBytes
   HF        :        194. kBytes
   nonlr-proj:      16953. kBytes
   wavefun   :      15666. kBytes
 
  
  
 General timing and accounting informations for this job:
 ========================================================
  
                  Total CPU time used (sec):     1095.319
                            User time (sec):     1073.331
                          System time (sec):       21.988
                         Elapsed time (sec):     1102.208
  
                   Maximum memory used (kb):      337072.
                   Average memory used (kb):           0.
  
                          Minor page faults:        83410
                          Major page faults:          107
                 Voluntary context switches:        15384
