 vasp.5.4.4.18Apr17-6-g9f103f2a35 (build Mar 06 2019 14:20:02) complex          
  
 executed on             LinuxIFC date 2020.08.22  13:50:59
 running on   48 total cores
 distrk:  each k-point on   48 cores,    1 groups
 distr:  one band on NCORES_PER_BAND=  24 cores,    2 groups


--------------------------------------------------------------------------------------------------------


 INCAR:
 POTCAR:    PAW_PBE Fe 06Sep2000                  
 POTCAR:    PAW_PBE H 15Jun2001                   
 POTCAR:    PAW_PBE C 08Apr2002                   
 POTCAR:    PAW_PBE N 08Apr2002                   
 POTCAR:    PAW_PBE O 08Apr2002                   

 ----------------------------------------------------------------------------- 
|                                                                             |
|           W    W    AA    RRRRR   N    N  II  N    N   GGGG   !!!           |
|           W    W   A  A   R    R  NN   N  II  NN   N  G    G  !!!           |
|           W    W  A    A  R    R  N N  N  II  N N  N  G       !!!           |
|           W WW W  AAAAAA  RRRRR   N  N N  II  N  N N  G  GGG   !            |
|           WW  WW  A    A  R   R   N   NN  II  N   NN  G    G                |
|           W    W  A    A  R    R  N    N  II  N    N   GGGG   !!!           |
|                                                                             |
|      For optimal performance we recommend to set                            |
|        NCORE= 4 - approx SQRT( number of cores)                             |
|      NCORE specifies how many cores store one orbital (NPAR=cpu/NCORE).     |
|      This setting can  greatly improve the performance of VASP for DFT.     |
|      The default,   NCORE=1            might be grossly inefficient         |
|      on modern multi-core architectures or massively parallel machines.     |
|      Do your own testing !!!!                                               |
|      Unfortunately you need to use the default for GW and RPA calculations. |
|      (for HF NCORE is supported but not extensively tested yet)             |
|                                                                             |
 ----------------------------------------------------------------------------- 

 POTCAR:    PAW_PBE Fe 06Sep2000                  
   VRHFIN =Fe:  d7 s1                                                           
   LEXCH  = PE                                                                  
   EATOM  =   594.3153 eV,   43.6809 Ry                                         
                                                                                
   TITEL  = PAW_PBE Fe 06Sep2000                                                
   LULTRA =        F    use ultrasoft PP ?                                      
   IUNSCR =        1    unscreen: 0-lin 1-nonlin 2-no                           
   RPACOR =    2.000    partial core radius                                     
   POMASS =   55.847; ZVAL   =    8.000    mass and valenz                      
   RCORE  =    2.300    outmost cutoff radius                                   
   RWIGS  =    2.460; RWIGS  =    1.302    wigner-seitz radius (au A)           
   ENMAX  =  267.882; ENMIN  =  200.911 eV                                      
   RCLOC  =    1.701    cutoff for local pot                                    
   LCOR   =        T    correct aug charges                                     
   LPAW   =        T    paw PP                                                  
   EAUG   =  511.368                                                            
   DEXC   =    0.000                                                            
   RMAX   =    2.356    core radius for proj-oper                               
   RAUG   =    1.300    factor for augmentation sphere                          
   RDEP   =    2.442    radius for radial grids                                 
   RDEPT  =    1.890    core radius for aug-charge                              
                                                                                
   Atomic configuration                                                         
    9 entries                                                                   
     n  l   j            E        occ.                                          
     1  0  0.50     -6993.8440   2.0000                                         
     2  0  0.50      -814.6047   2.0000                                         
     2  1  1.50      -693.3689   6.0000                                         
     3  0  0.50       -89.4732   2.0000                                         
     3  1  1.50       -55.6373   6.0000                                         
     3  2  2.50        -3.8151   7.0000                                         
     4  0  0.50        -4.2551   1.0000                                         
     4  1  1.50        -3.4015   0.0000                                         
     4  3  2.50        -1.3606   0.0000                                         
   Description                                                                  
     l       E           TYP  RCUT    TYP  RCUT                                 
     2     -3.8151135     23  2.300                                             
     2     -5.1756961     23  2.300                                             
     0     -4.2550963     23  2.300                                             
     0      7.2035603     23  2.300                                             
     1     -2.7211652     23  2.300                                             
     1     18.4316424     23  2.300                                             
  local pseudopotential read in
  partial core-charges read in
  partial kinetic energy density read in
  atomic valenz-charges read in
  non local Contribution for L=           2  read in
    real space projection operators read in
  non local Contribution for L=           2  read in
    real space projection operators read in
  non local Contribution for L=           0  read in
    real space projection operators read in
  non local Contribution for L=           0  read in
    real space projection operators read in
  non local Contribution for L=           1  read in
    real space projection operators read in
  non local Contribution for L=           1  read in
    real space projection operators read in
    PAW grid and wavefunctions read in
 
   number of l-projection  operators is LMAX  =           6
   number of lm-projection operators is LMMAX =          18
 
 POTCAR:    PAW_PBE H 15Jun2001                   
   VRHFIN =H: ultrasoft test                                                    
   LEXCH  = PE                                                                  
   EATOM  =    12.4884 eV,    0.9179 Ry                                         
                                                                                
   TITEL  = PAW_PBE H 15Jun2001                                                 
   LULTRA =        F    use ultrasoft PP ?                                      
   IUNSCR =        0    unscreen: 0-lin 1-nonlin 2-no                           
   RPACOR =    0.000    partial core radius                                     
   POMASS =    1.000; ZVAL   =    1.000    mass and valenz                      
   RCORE  =    1.100    outmost cutoff radius                                   
   RWIGS  =    0.700; RWIGS  =    0.370    wigner-seitz radius (au A)           
   ENMAX  =  250.000; ENMIN  =  200.000 eV                                      
   RCLOC  =    0.701    cutoff for local pot                                    
   LCOR   =        T    correct aug charges                                     
   LPAW   =        T    paw PP                                                  
   EAUG   =  400.000                                                            
   RMAX   =    1.123    core radius for proj-oper                               
   RAUG   =    1.200    factor for augmentation sphere                          
   RDEP   =    1.112    radius for radial grids                                 
   RDEPT  =    0.926    core radius for aug-charge                              
                                                                                
   Atomic configuration                                                         
    2 entries                                                                   
     n  l   j            E        occ.                                          
     1  0  0.50        -6.4927   1.0000                                         
     2  1  0.50        -3.4015   0.0000                                         
   Description                                                                  
     l       E           TYP  RCUT    TYP  RCUT                                 
     0     -6.4927494     23  1.100                                             
     0      6.8029130     23  1.100                                             
     1     -4.0817478     23  1.100                                             
  local pseudopotential read in
  atomic valenz-charges read in
  non local Contribution for L=           0  read in
    real space projection operators read in
  non local Contribution for L=           0  read in
    real space projection operators read in
  non local Contribution for L=           1  read in
    real space projection operators read in
    PAW grid and wavefunctions read in
 
   number of l-projection  operators is LMAX  =           3
   number of lm-projection operators is LMMAX =           5
 
 POTCAR:    PAW_PBE C 08Apr2002                   
   VRHFIN =C: s2p2                                                              
   LEXCH  = PE                                                                  
   EATOM  =   147.1560 eV,   10.8157 Ry                                         
                                                                                
   TITEL  = PAW_PBE C 08Apr2002                                                 
   LULTRA =        F    use ultrasoft PP ?                                      
   IUNSCR =        1    unscreen: 0-lin 1-nonlin 2-no                           
   RPACOR =    1.200    partial core radius                                     
   POMASS =   12.011; ZVAL   =    4.000    mass and valenz                      
   RCORE  =    1.500    outmost cutoff radius                                   
   RWIGS  =    1.630; RWIGS  =    0.863    wigner-seitz radius (au A)           
   ENMAX  =  400.000; ENMIN  =  300.000 eV                                      
   ICORE  =        2    local potential                                         
   LCOR   =        T    correct aug charges                                     
   LPAW   =        T    paw PP                                                  
   EAUG   =  644.873                                                            
   DEXC   =    0.000                                                            
   RMAX   =    1.529    core radius for proj-oper                               
   RAUG   =    1.300    factor for augmentation sphere                          
   RDEP   =    1.501    radius for radial grids                                 
   RDEPT  =    1.300    core radius for aug-charge                              
                                                                                
   Atomic configuration                                                         
    4 entries                                                                   
     n  l   j            E        occ.                                          
     1  0  0.50      -273.3789   2.0000                                         
     2  0  0.50       -13.7508   2.0000                                         
     2  1  0.50        -5.2854   2.0000                                         
     3  2  1.50        -5.4423   0.0000                                         
   Description                                                                  
     l       E           TYP  RCUT    TYP  RCUT                                 
     0    -13.7508458     23  1.200                                             
     0     -8.2022199     23  1.200                                             
     1     -5.2854383     23  1.500                                             
     1     34.0145650     23  1.500                                             
     2     -5.4423304      7  1.500                                             
  local pseudopotential read in
  partial core-charges read in
  partial kinetic energy density read in
  atomic valenz-charges read in
  non local Contribution for L=           0  read in
    real space projection operators read in
  non local Contribution for L=           0  read in
    real space projection operators read in
  non local Contribution for L=           1  read in
    real space projection operators read in
  non local Contribution for L=           1  read in
    real space projection operators read in
    PAW grid and wavefunctions read in
 
   number of l-projection  operators is LMAX  =           4
   number of lm-projection operators is LMMAX =           8
 
 POTCAR:    PAW_PBE N 08Apr2002                   
   VRHFIN =N: s2p3                                                              
   LEXCH  = PE                                                                  
   EATOM  =   264.5486 eV,   19.4438 Ry                                         
                                                                                
   TITEL  = PAW_PBE N 08Apr2002                                                 
   LULTRA =        F    use ultrasoft PP ?                                      
   IUNSCR =        1    unscreen: 0-lin 1-nonlin 2-no                           
   RPACOR =    1.200    partial core radius                                     
   POMASS =   14.001; ZVAL   =    5.000    mass and valenz                      
   RCORE  =    1.500    outmost cutoff radius                                   
   RWIGS  =    1.400; RWIGS  =    0.741    wigner-seitz radius (au A)           
   ENMAX  =  400.000; ENMIN  =  300.000 eV                                      
   ICORE  =        2    local potential                                         
   LCOR   =        T    correct aug charges                                     
   LPAW   =        T    paw PP                                                  
   EAUG   =  627.112                                                            
   DEXC   =    0.000                                                            
   RMAX   =    1.529    core radius for proj-oper                               
   RAUG   =    1.300    factor for augmentation sphere                          
   RDEP   =    1.514    radius for radial grids                                 
   RDEPT  =    1.338    core radius for aug-charge                              
                                                                                
   Atomic configuration                                                         
    4 entries                                                                   
     n  l   j            E        occ.                                          
     1  0  0.50      -384.7179   2.0000                                         
     2  0  0.50       -18.5828   2.0000                                         
     2  1  0.50        -7.0898   3.0000                                         
     3  2  1.50        -6.8029   0.0000                                         
   Description                                                                  
     l       E           TYP  RCUT    TYP  RCUT                                 
     0    -18.5828119     23  1.200                                             
     0    -13.5018863     23  1.200                                             
     1     -7.0897853     23  1.500                                             
     1      9.5240782     23  1.500                                             
     2     -6.8029130      7  1.500                                             
  local pseudopotential read in
  partial core-charges read in
  partial kinetic energy density read in
  atomic valenz-charges read in
  non local Contribution for L=           0  read in
    real space projection operators read in
  non local Contribution for L=           0  read in
    real space projection operators read in
  non local Contribution for L=           1  read in
    real space projection operators read in
  non local Contribution for L=           1  read in
    real space projection operators read in
    PAW grid and wavefunctions read in
 
   number of l-projection  operators is LMAX  =           4
   number of lm-projection operators is LMMAX =           8
 
 POTCAR:    PAW_PBE O 08Apr2002                   
   VRHFIN =O: s2p4                                                              
   LEXCH  = PE                                                                  
   EATOM  =   432.3788 eV,   31.7789 Ry                                         
                                                                                
   TITEL  = PAW_PBE O 08Apr2002                                                 
   LULTRA =        F    use ultrasoft PP ?                                      
   IUNSCR =        1    unscreen: 0-lin 1-nonlin 2-no                           
   RPACOR =    1.200    partial core radius                                     
   POMASS =   16.000; ZVAL   =    6.000    mass and valenz                      
   RCORE  =    1.520    outmost cutoff radius                                   
   RWIGS  =    1.550; RWIGS  =    0.820    wigner-seitz radius (au A)           
   ENMAX  =  400.000; ENMIN  =  300.000 eV                                      
   ICORE  =        2    local potential                                         
   LCOR   =        T    correct aug charges                                     
   LPAW   =        T    paw PP                                                  
   EAUG   =  605.392                                                            
   DEXC   =    0.000                                                            
   RMAX   =    1.553    core radius for proj-oper                               
   RAUG   =    1.300    factor for augmentation sphere                          
   RDEP   =    1.550    radius for radial grids                                 
   RDEPT  =    1.329    core radius for aug-charge                              
                                                                                
   Atomic configuration                                                         
    4 entries                                                                   
     n  l   j            E        occ.                                          
     1  0  0.50      -514.6923   2.0000                                         
     2  0  0.50       -23.9615   2.0000                                         
     2  1  0.50        -9.0305   4.0000                                         
     3  2  1.50        -9.5241   0.0000                                         
   Description                                                                  
     l       E           TYP  RCUT    TYP  RCUT                                 
     0    -23.9615318     23  1.200                                             
     0     -9.5240782     23  1.200                                             
     1     -9.0304911     23  1.520                                             
     1      8.1634956     23  1.520                                             
     2     -9.5240782      7  1.500                                             
  local pseudopotential read in
  partial core-charges read in
  partial kinetic energy density read in
  kinetic energy density of atom read in
  atomic valenz-charges read in
  non local Contribution for L=           0  read in
    real space projection operators read in
  non local Contribution for L=           0  read in
    real space projection operators read in
  non local Contribution for L=           1  read in
    real space projection operators read in
  non local Contribution for L=           1  read in
    real space projection operators read in
    PAW grid and wavefunctions read in
 
   number of l-projection  operators is LMAX  =           4
   number of lm-projection operators is LMMAX =           8
 

 ----------------------------------------------------------------------------- 
|                                                                             |
|  ADVICE TO THIS USER RUNNING 'VASP/VAMP'   (HEAR YOUR MASTER'S VOICE ...):  |
|                                                                             |
|      You have a (more or less) 'large supercell' and for larger cells       |
|      it might be more efficient to use real space projection opertators     |
|      So try LREAL= Auto  in the INCAR   file.                               |
|      Mind:          For very  accurate calculation you might also keep the  |
|      reciprocal projection scheme          (i.e. LREAL=.FALSE.)             |
|                                                                             |
 ----------------------------------------------------------------------------- 

  PAW_PBE Fe 06Sep2000                  :
 energy of atom  1       EATOM= -594.3153
 kinetic energy error for atom=    0.0026 (will be added to EATOM!!)
  PAW_PBE H 15Jun2001                   :
 energy of atom  2       EATOM=  -12.4884
 kinetic energy error for atom=    0.0014 (will be added to EATOM!!)
  PAW_PBE C 08Apr2002                   :
 energy of atom  3       EATOM= -147.1560
 kinetic energy error for atom=    0.0071 (will be added to EATOM!!)
  PAW_PBE N 08Apr2002                   :
 energy of atom  4       EATOM= -264.5486
 kinetic energy error for atom=    0.0125 (will be added to EATOM!!)
  PAW_PBE O 08Apr2002                   :
 energy of atom  5       EATOM= -432.3788
 kinetic energy error for atom=    0.0208 (will be added to EATOM!!)
 
 
 POSCAR: Fe  H  C  N  O                          
  positions in direct lattice
  velocities in cartesian coordinates
 exchange correlation table for  LEXCH =        8
   RHO(1)=    0.500       N(1)  =     2000
   RHO(2)=  100.500       N(2)  =     4000
 


--------------------------------------------------------------------------------------------------------


 ion  position               nearest neighbor table
   1  0.000  0.500  0.500-  69 2.10  67 2.10  73 2.13  71 2.13  63 2.18  65 2.18
   2  0.500  1.000  0.500-  70 2.10  68 2.10  72 2.13  74 2.13  66 2.18  64 2.18
   3  0.164  0.288  0.389-  67 0.99
   4  0.336  0.899  0.611-  68 0.99
   5  0.836  0.712  0.611-  69 0.99
   6  0.664  0.101  0.389-  70 0.99
   7  0.983  0.232  0.392-  67 0.99
   8  0.517  0.839  0.608-  68 0.99
   9  0.017  0.768  0.608-  69 0.99
  10  0.483  0.161  0.392-  70 0.99
  11  0.233  0.684  0.744-  31 1.08
  12  0.268  0.939  0.255-  32 1.08
  13  0.767  0.316  0.256-  33 1.08
  14  0.732  0.061  0.745-  34 1.08
  15  0.420  0.675  0.917-  35 1.08
  16  0.081  0.757  0.082-  36 1.08
  17  0.580  0.325  0.083-  37 1.08
  18  0.919  0.243  0.918-  38 1.08
  19  0.217  0.274  0.766-  43 1.08
  20  0.282  0.508  0.234-  44 1.08
  21  0.783  0.726  0.234-  45 1.08
  22  0.718  0.492  0.766-  46 1.08
  23  0.033  0.304  0.603-  47 1.08
  24  0.467  0.701  0.398-  48 1.08
  25  0.967  0.696  0.397-  49 1.08
  26  0.533  0.299  0.602-  50 1.08
  27  0.428  0.357  0.946-  59 1.09
  28  0.072  0.412  0.054-  60 1.09
  29  0.572  0.643  0.054-  61 1.09
  30  0.928  0.588  0.946-  62 1.09
  31  0.233  0.595  0.753-  11 1.08  63 1.34  35 1.38
  32  0.267  0.842  0.247-  12 1.08  64 1.34  36 1.38
  33  0.767  0.405  0.247-  13 1.08  65 1.34  37 1.38
  34  0.733  0.158  0.753-  14 1.08  66 1.34  38 1.38
  35  0.338  0.589  0.849-  15 1.08  31 1.38  39 1.40
  36  0.163  0.739  0.150-  16 1.08  32 1.38  40 1.40
  37  0.662  0.411  0.151-  17 1.08  33 1.38  41 1.40
  38  0.837  0.261  0.850-  18 1.08  34 1.38  42 1.40
  39  0.337  0.472  0.857-  43 1.39  35 1.40  59 1.45
  40  0.163  0.615  0.143-  44 1.39  36 1.40  60 1.45
  41  0.663  0.528  0.143-  45 1.39  37 1.40  61 1.45
  42  0.837  0.385  0.857-  46 1.39  38 1.40  62 1.45
  43  0.225  0.367  0.766-  19 1.08  47 1.38  39 1.39
  44  0.275  0.602  0.234-  20 1.08  48 1.38  40 1.39
  45  0.775  0.633  0.234-  21 1.08  49 1.38  41 1.39
  46  0.725  0.398  0.766-  22 1.08  50 1.38  42 1.39
  47  0.123  0.383  0.673-  23 1.08  63 1.33  43 1.38
  48  0.377  0.709  0.327-  24 1.08  64 1.33  44 1.38
  49  0.877  0.617  0.327-  25 1.08  65 1.33  45 1.38
  50  0.623  0.291  0.673-  26 1.08  66 1.33  46 1.38
  51  0.381  0.535  0.497-  71 1.25  57 1.46  55 1.47
  52  0.119  0.038  0.503-  72 1.25  58 1.46  56 1.47
  53  0.619  0.465  0.503-  73 1.25  55 1.46  57 1.47
  54  0.881  0.962  0.497-  74 1.25  56 1.46  58 1.47
  55  0.444  0.405  0.457-  75 1.25  53 1.46  51 1.47  57 2.07
  56  0.056  0.948  0.543-  76 1.25  54 1.46  52 1.47  58 2.07
  57  0.556  0.595  0.543-  77 1.25  51 1.46  53 1.47  55 2.07
  58  0.944  0.052  0.457-  78 1.25  52 1.46  54 1.47  56 2.07
  59  0.444  0.454  0.953-  27 1.09  61 1.34  39 1.45
  60  0.056  0.501  0.047-  28 1.09  62 1.34  40 1.45
  61  0.556  0.546  0.047-  29 1.09  59 1.34  41 1.45
  62  0.944  0.499  0.953-  30 1.09  60 1.34  42 1.45
  63  0.128  0.494  0.665-  47 1.33  31 1.34   1 2.18
  64  0.373  0.828  0.335-  48 1.33  32 1.34   2 2.18
  65  0.872  0.506  0.335-  49 1.33  33 1.34   1 2.18
  66  0.627  0.172  0.665-  50 1.33  34 1.34   2 2.18
  67  0.042  0.304  0.388-   7 0.99   3 0.99   1 2.10
  68  0.458  0.916  0.612-   8 0.99   4 0.99   2 2.10
  69  0.958  0.696  0.612-   9 0.99   5 0.99   1 2.10
  70  0.542  0.084  0.388-  10 0.99   6 0.99   2 2.10
  71  0.238  0.578  0.494-  51 1.25   1 2.13
  72  0.262  0.084  0.506-  52 1.25   2 2.13
  73  0.762  0.422  0.506-  53 1.25   1 2.13
  74  0.738  0.916  0.494-  54 1.25   2 2.13
  75  0.375  0.290  0.405-  55 1.25
  76  0.125  0.885  0.595-  56 1.25
  77  0.625  0.710  0.595-  57 1.25
  78  0.875  0.115  0.405-  58 1.25
 

IMPORTANT INFORMATION: All symmetrisations will be switched off!
NOSYMM: (Re-)initialisation of all symmetry stuff for point group C_1.

 
 
 KPOINTS: KPOINTS created by Atomic Simulation Env

Automatic generation of k-mesh.
Space group operators:
 irot       det(A)        alpha          n_x          n_y          n_z        tau_x        tau_y        tau_z
    1     1.000000     0.000000     1.000000     0.000000     0.000000     0.000000     0.000000     0.000000
 
 Subroutine IBZKPT returns following result:
 ===========================================
 
 Found      4 irreducible k-points:
 
 Following reciprocal coordinates:
            Coordinates               Weight
  0.000000  0.000000  0.000000      1.000000
  0.333333  0.000000  0.000000      2.000000
  0.000000  0.500000  0.000000      1.000000
  0.333333  0.500000  0.000000      2.000000
 
 Following cartesian coordinates:
            Coordinates               Weight
 -0.000000  0.000000 -0.000000      1.000000
 -0.042261 -0.003894  0.000308      2.000000
 -0.007061  0.026823 -0.040391      1.000000
 -0.049321  0.022929 -0.040083      2.000000
 
 
 Subroutine IBZKPT_HF returns following result:
 ==============================================
 
 Found      6 k-points in 1st BZ
 the following      6 k-points will be used (e.g. in the exchange kernel)
 Following reciprocal coordinates:   # in IRBZ
  0.000000  0.000000  0.000000    0.16666667   1 t-inv F
  0.333333  0.000000  0.000000    0.16666667   2 t-inv F
  0.000000  0.500000  0.000000    0.16666667   3 t-inv F
  0.333333  0.500000  0.000000    0.16666667   4 t-inv F
 -0.333333 -0.000000 -0.000000    0.16666667   2 t-inv T
 -0.333333 -0.500000 -0.000000    0.16666667   4 t-inv T


--------------------------------------------------------------------------------------------------------




 Dimension of arrays:
   k-points           NKPTS =      4   k-points in BZ     NKDIM =      6   number of bands    NBANDS=    172
   number of dos      NEDOS =   3000   number of ions     NIONS =     78
   non local maximal  LDIM  =      6   non local SUM 2l+1 LMDIM =     18
   total plane-waves  NPLWV = 518400
   max r-space proj   IRMAX =      1   max aug-charges    IRDMAX=  18603
   dimension x,y,z NGX =    60 NGY =   90 NGZ =   96
   dimension x,y,z NGXF=   120 NGYF=  180 NGZF=  192
   support grid    NGXF=   120 NGYF=  180 NGZF=  192
   ions per type =               2  28  32   4  12
   NGX,Y,Z   is equivalent  to a cutoff of  12.48, 12.94, 12.80 a.u.
   NGXF,Y,Z  is equivalent  to a cutoff of  24.96, 25.89, 25.60 a.u.

 SYSTEM =  unknown system                          
 POSCAR =  Fe  H  C  N  O                          

 Startparameter for this run:
   NWRITE =      2    write-flag & timer
   PREC   = accura    normal or accurate (medium, high low for compatibility)
   ISTART =      1    job   : 0-new  1-cont  2-samecut
   ICHARG =      1    charge: 1-file 2-atom 10-const
   ISPIN  =      2    spin polarized calculation?
   LNONCOLLINEAR =      F non collinear calculations
   LSORBIT =      F    spin-orbit coupling
   INIWAV =      1    electr: 0-lowe 1-rand  2-diag
   LASPH  =      F    aspherical Exc in radial PAW
   METAGGA=      F    non-selfconsistent MetaGGA calc.

 Electronic Relaxation 1
   ENCUT  =  520.0 eV  38.22 Ry    6.18 a.u.  14.86 21.49 23.19*2*pi/ulx,y,z
   ENINI  =  520.0     initial cutoff
   ENAUG  =  644.9 eV  augmentation charge cutoff
   NELM   =    150;   NELMIN=  3; NELMDL=  0     # of ELM steps 
   EDIFF  = 0.1E-04   stopping-criterion for ELM
   LREAL  =      F    real-space projection
   NLSPLINE    = F    spline interpolate recip. space projectors
   LCOMPAT=      F    compatible to vasp.4.4
   GGA_COMPAT  = T    GGA compatible to vasp.4.4-vasp.4.6
   LMAXPAW     = -100 max onsite density
   LMAXMIX     =    2 max onsite mixed and CHGCAR
   VOSKOWN=      0    Vosko Wilk Nusair interpolation
   ROPT   =    0.00000   0.00000   0.00000   0.00000
   ROPT   =    0.00000
 Ionic relaxation
   EDIFFG = 0.1E-03   stopping-criterion for IOM
   NSW    =      0    number of steps for IOM
   NBLOCK =      1;   KBLOCK =      1    inner block; outer block 
   IBRION =     -1    ionic relax: 0-MD 1-quasi-New 2-CG
   NFREE  =      0    steps in history (QN), initial steepest desc. (CG)
   ISIF   =      0    stress and relaxation
   IWAVPR =     10    prediction:  0-non 1-charg 2-wave 3-comb
   ISYM   =      0    0-nonsym 1-usesym 2-fastsym
   LCORR  =      T    Harris-Foulkes like correction to forces

   POTIM  = 0.5000    time-step for ionic-motion
   TEIN   =    0.0    initial temperature
   TEBEG  =    0.0;   TEEND  =   0.0 temperature during run
   SMASS  =  -3.00    Nose mass-parameter (am)
   estimated Nose-frequenzy (Omega)   =  0.10E-29 period in steps =****** mass=  -0.146E-26a.u.
   SCALEE = 1.0000    scale energy and forces
   NPACO  =    256;   APACO  = 16.0  distance and # of slots for P.C.
   PSTRESS=    0.0 pullay stress

  Mass of Ions in am
   POMASS =  55.85  1.00 12.01 14.00 16.00
  Ionic Valenz
   ZVAL   =   8.00  1.00  4.00  5.00  6.00
  Atomic Wigner-Seitz radii
   RWIGS  =  -1.00 -1.00 -1.00 -1.00 -1.00
  virtual crystal weights 
   VCA    =   1.00  1.00  1.00  1.00  1.00
   NELECT =     264.0000    total number of electrons
   NUPDOWN=      -1.0000    fix difference up-down

 DOS related values:
   EMIN   =  10.00;   EMAX   =-10.00  energy-range for DOS
   EFERMI =   0.00
   ISMEAR =     0;   SIGMA  =   0.01  broadening in eV -4-tet -1-fermi 0-gaus

 Electronic relaxation 2 (details)
   IALGO  =     58    algorithm
   LDIAG  =      T    sub-space diagonalisation (order eigenvalues)
   LSUBROT=      F    optimize rotation matrix (better conditioning)
   TURBO    =      0    0=normal 1=particle mesh
   IRESTART =      0    0=no restart 2=restart with 2 vectors
   NREBOOT  =      0    no. of reboots
   NMIN     =      0    reboot dimension
   EREF     =   0.00    reference energy to select bands
   IMIX   =      4    mixing-type and parameters
     AMIX     =   0.40;   BMIX     =  1.00
     AMIX_MAG =   1.60;   BMIX_MAG =  1.00
     AMIN     =   0.10
     WC   =   100.;   INIMIX=   1;  MIXPRE=   1;  MAXMIX= -45

 Intra band minimization:
   WEIMIN = 0.0000     energy-eigenvalue tresh-hold
   EBREAK =  0.15E-07  absolut break condition
   DEPER  =   0.30     relativ break condition  

   TIME   =   0.40     timestep for ELM

  volume/ion in A,a.u.               =      12.86        86.80
  Fermi-wavevector in a.u.,A,eV,Ry     =   1.049055  1.982427 14.973443  1.100517
  Thomas-Fermi vector in A             =   2.184002
 
 Write flags
   LWAVE        =      T    write WAVECAR
   LDOWNSAMPLE  =      F    k-point downsampling of WAVECAR
   LCHARG       =      T    write CHGCAR
   LVTOT        =      F    write LOCPOT, total local potential
   LVHAR        =      F    write LOCPOT, Hartree potential only
   LELF         =      F    write electronic localiz. function (ELF)
   LORBIT       =     11    0 simple, 1 ext, 2 COOP (PROOUT), +10 PAW based schemes


 Dipole corrections
   LMONO  =      F    monopole corrections only (constant potential shift)
   LDIPOL =      F    correct potential (dipole corrections)
   IDIPOL =      0    1-x, 2-y, 3-z, 4-all directions 
   EPSILON=  1.0000000 bulk dielectric constant

 Exchange correlation treatment:
   GGA     =    PE    GGA type
   LEXCH   =     8    internal setting for exchange type
   VOSKOWN=      0    Vosko Wilk Nusair interpolation
   EXXOEP  =     0    0=HF, 1=EXX-LHF (local Hartree Fock) 2=EXX OEP
   LHFCALC =     T    Hartree Fock is set to
   LSYMGRAD=     F    symmetrize gradient (conserves proper symmetry)
   PRECFOCK=normal    Normal, Fast or Accurate (Low or Medium for compatibility)
   LRHFCALC=     F    long range Hartree Fock
   LRSCOR  =     F    long range correlation only (use DFT for short range part)
   LTHOMAS =     F    Thomas Fermi screening in HF
   LMODELHF=     F    short range full HF, long range fraction AEXX
   ENCUT4O =  -1.0   cutoff for four orbital integrals eV
   LMAXFOCK=     4    L truncation for augmentation on plane wave grid
   LMAXFOCKAE=  -1    L truncation for all-electron charge restoration on plane wave grid
   NMAXFOCKAE=   1    number of basis functions for all-electron charge restoration
   LFOCKAEDFT=     F  apply the AE augmentation even for DFT
   NKREDX  =     1    reduce k-point grid by
   NKREDY  =     1    reduce k-point grid by
   NKREDZ  =     1    reduce k-point grid by
   SHIFTRED=     F    shift reduced grid of Gamma
   HFKIDENT=     F    idential grid for each k-point
   ODDONLY =     F    use only odd q-grid points
   EVENONLY=     F    use only even q-grid points
   HFALPHA =   -1.0000 decay constant for conv. correction
   MCALPHA =    0.0000 extent of test-charge in conv. correction in multipole expansion
   AEXX    =    0.2500 exact exchange contribution
   HFSCREEN=    0.2000 screening length (either q_TF or 0.3 A-1)
   HFSCREENC=   0.2000 screening length for correlation (either q_TF or 0.3 A-1)
   HFRCUT  =    0.0000 spherical cutoff for potential kernel
   ALDAX   =    0.7500 LDA exchange part
   AGGAX   =    0.7500 GGA exchange part
   ALDAC   =    1.0000 LDA correlation
   AGGAC   =    1.0000 GGA correlation
   ENCUTFOCK=  -1.0 apply spherical cutoff to Coloumb kernel
   NBANDSGWLOW=     1    first orbital included in HF term
   NBLOCK_FOCK=    64    blocking factor in FOCK_ACC
 Linear response parameters
   LEPSILON=     F    determine dielectric tensor
   LRPA    =     F    only Hartree local field effects (RPA)
   LNABLA  =     F    use nabla operator in PAW spheres
   LVEL    =     F    velocity operator in full k-point grid
   LINTERFAST=   F  fast interpolation
   KINTER  =     0    interpolate to denser k-point grid
   CSHIFT  =0.1000    complex shift for real part using Kramers Kronig
   OMEGAMAX=  -1.0    maximum frequency
   DEG_THRESHOLD= 0.2000000E-02 threshold for treating states as degnerate
   RTIME   =   -0.100 relaxation time in fs
  (WPLASMAI=    0.000 imaginary part of plasma frequency in eV, 0.658/RTIME)
   DFIELD  = 0.0000000 0.0000000 0.0000000 field for delta impulse in time
 
 Orbital magnetization related:
   ORBITALMAG=     F  switch on orbital magnetization
   LCHIMAG   =     F  perturbation theory with respect to B field
   DQ        =  0.001000  dq finite difference perturbation B field
   LLRAUG    =     F  two centre corrections for induced B field



--------------------------------------------------------------------------------------------------------


 Static calculation
 charge density and potential will be updated during run
 spin polarized calculation
 Conjugate gradient for all bands (Freysoldt, et al. PRB 79, 241103 (2009))
 preconditioned conjugated gradient                                        
 perform sub-space diagonalisation
    before iterative eigenvector-optimisation
 modified Broyden-mixing scheme, WC =      100.0
 initial mixing is a Kerker type mixing with AMIX =  0.4000 and BMIX =      1.0000
 Hartree-type preconditioning will be used
 using additional bands           40
 reciprocal scheme for non local part
 use partial core corrections
 no Harris-corrections to forces 
 use gradient corrections 
 use of overlap-Matrix (Vanderbilt PP)
 Gauss-broadening in eV      SIGMA  =   0.01


--------------------------------------------------------------------------------------------------------


  energy-cutoff  :      520.00
  volume of cell :     1003.31
      direct lattice vectors                 reciprocal lattice vectors
    -7.875578060 -0.022134201  1.362008927    -0.126782431 -0.011681516  0.000922541
    -0.973161459 10.128992762 -5.482450317    -0.014121220  0.053645633 -0.080781679
     0.897118023-10.288624320 -6.989309700    -0.013629374 -0.044356290 -0.079530308

  length of vectors
     7.992514500 11.558581188 12.470407420     0.127322793  0.097994604  0.092077740


 
 old parameters found on file WAVECAR:
  energy-cutoff  :      520.00
  volume of cell :     1003.31
      direct lattice vectors                 reciprocal lattice vectors
    -7.875578060 -0.022134201  1.362008927    -0.126782431 -0.011681516  0.000922541
    -0.973161459 10.128992762 -5.482450317    -0.014121220  0.053645633 -0.080781679
     0.897118023-10.288624320 -6.989309700    -0.013629374 -0.044356290 -0.079530308

  length of vectors

 
 k-points in units of 2pi/SCALE and weight: KPOINTS created by Atomic Simulation Env
  -0.00000000  0.00000000 -0.00000000       0.167
  -0.04226081 -0.00389384  0.00030751       0.333
  -0.00706061  0.02682282 -0.04039084       0.167
  -0.04932142  0.02292898 -0.04008333       0.333
 
 k-points in reciprocal lattice and weights: KPOINTS created by Atomic Simulation Env
   0.00000000  0.00000000  0.00000000       0.167
   0.33333333  0.00000000  0.00000000       0.333
   0.00000000  0.50000000  0.00000000       0.167
   0.33333333  0.50000000  0.00000000       0.333
 
 position of ions in fractional coordinates (direct lattice) 
   0.00000143  0.49999982  0.50000114
   0.49999984  0.99999889  0.49999915
   0.16431352  0.28807699  0.38889040
   0.33566163  0.89895382  0.61102991
   0.83568817  0.71192141  0.61111039
   0.66433836  0.10104339  0.38896917
   0.98283719  0.23187926  0.39245977
   0.51718538  0.83928174  0.60752787
   0.01716473  0.76812004  0.60754263
   0.48281490  0.16071536  0.39246983
   0.23288330  0.68368443  0.74405229
   0.26804783  0.93948274  0.25540773
   0.76711910  0.31631485  0.25594880
   0.73195226  0.06051415  0.74458985
   0.42036222  0.67453157  0.91702709
   0.08063182  0.75732217  0.08238903
   0.57964072  0.32546882  0.08297466
   0.91936714  0.24267539  0.91760915
   0.21741909  0.27412518  0.76627281
   0.28218811  0.50804333  0.23397310
   0.78258424  0.72587544  0.23373074
   0.71780886  0.49195409  0.76602548
   0.03312319  0.30360541  0.60265487
   0.46651207  0.70112918  0.39755021
   0.96687985  0.69639398  0.39734770
   0.53348564  0.29886772  0.60244806
   0.42845042  0.35728203  0.94579953
   0.07175041  0.41151155  0.05417076
   0.57155280  0.64271924  0.05420341
   0.92824675  0.58848587  0.94582817
   0.23345733  0.59493551  0.75310831
   0.26714775  0.84175335  0.24652776
   0.76654513  0.40506434  0.24689345
   0.73285121  0.15824384  0.75347017
   0.33810095  0.58866613  0.84931069
   0.16251802  0.73926708  0.15031983
   0.66190165  0.41133447  0.15069141
   0.83748017  0.26073019  0.84967852
   0.33686997  0.47168000  0.85692261
   0.16333710  0.61476864  0.14294506
   0.66313276  0.52832096  0.14307995
   0.83666036  0.38522882  0.85705340
   0.22503375  0.36734607  0.76565272
   0.27486241  0.60180074  0.23440485
   0.77496920  0.63265450  0.23435025
   0.72513462  0.39819687  0.76559377
   0.12277314  0.38255365  0.67324929
   0.37713421  0.70940741  0.32679247
   0.87722958  0.61744619  0.32675328
   0.62286374  0.29058979  0.67320593
   0.38066420  0.53494038  0.49705283
   0.11936661  0.03778508  0.50281801
   0.61933770  0.46505810  0.50294602
   0.88063317  0.96221373  0.49718210
   0.44390170  0.40489111  0.45685017
   0.05606135  0.94798004  0.54309944
   0.55610018  0.59510692  0.54314750
   0.94393790  0.05201921  0.45690136
   0.44378979  0.45431547  0.95341619
   0.05632127  0.50091292  0.04654186
   0.55621332  0.54568583  0.04658660
   0.94367615  0.49908434  0.95345683
   0.12772075  0.49356154  0.66532563
   0.37251342  0.82826130  0.33452970
   0.87228190  0.50643814  0.33467654
   0.62748546  0.17173599  0.66546852
   0.04240370  0.30391775  0.38796417
   0.45757028  0.91573973  0.61193966
   0.95759828  0.69608134  0.61203831
   0.54242904  0.08425705  0.38805796
   0.23803037  0.57814848  0.49362820
   0.26203053  0.08429908  0.50609399
   0.76197248  0.42185108  0.50637284
   0.73796925  0.91569884  0.49390500
   0.37496902  0.29021559  0.40462617
   0.12496144  0.88545531  0.59525739
   0.62503337  0.70978224  0.59537027
   0.87503825  0.11454440  0.40474404
 
 position of ions in cartesian coordinates  (Angst):
  -0.03803179 -0.07982934 -6.23588505
  -4.46238990  4.97361099 -8.29608886
  -1.22552875 -1.08685443 -4.07364679
  -2.97019062  2.81140992 -8.74197282
  -6.72610376  0.90506429 -7.03609878
  -4.98142892 -2.99319451 -2.36775658
  -7.61398421 -1.71092210 -2.67565635
  -4.34486625  2.23900518 -8.14310976
  -0.33764956  1.52912453 -8.43410502
  -3.60675664 -2.42077666 -2.96660894
  -1.83192322 -0.73539453 -8.63148869
  -2.79616910  6.88228665 -6.57070766
  -6.11971546  0.55361025 -2.47826282
  -5.15545224 -7.06405900 -4.53900936
  -3.14434210 -2.61192625 -9.53493503
  -1.29810625  6.82145628 -4.61800237
  -4.80730138  2.43014637 -1.57482640
  -6.65350628 -7.00322804 -6.49172408
  -1.29163194 -5.11209352 -6.56246893
  -2.50690122  2.73245987 -4.03629003
  -6.66001322  4.93029742 -4.54730581
  -5.44469522 -2.91423704 -7.07344109
  -0.01566880 -3.12600573 -5.83152899
  -3.99971464  3.00116170 -5.98711386
  -7.93597375  2.94420727 -5.27823253
  -3.95188735 -3.18294106 -5.12261131
  -2.87349403 -6.12155236 -7.98571352
  -0.91694557  3.60926676 -2.53698313
  -5.07815145  5.93976912 -3.12406067
  -7.03465204 -3.79104760 -8.57275021
  -1.74195267 -1.72751845 -8.20744065
  -2.70194038  5.98376899 -5.97407220
  -6.20968646  1.54573300 -2.90231862
  -5.24967206 -6.16554186 -5.13565048
  -2.47367567 -2.78312727 -8.70293178
  -1.86449495  5.93784941 -4.88227588
  -5.47796496  2.60134595 -2.40683380
  -6.08711113 -6.11962582 -6.22745117
  -2.34330582 -4.04636788 -8.11643979
  -1.75640460  4.75266374 -4.14705928
  -5.60833584  3.86458541 -2.99333078
  -6.19519577 -4.93443927 -6.96267062
  -1.44287706 -4.16164850 -7.05884257
  -2.54006086  3.67784796 -4.56330569
  -6.50876560  3.97985784 -4.05092837
  -5.41153621 -3.85962370 -6.54642672
  -0.73521183 -3.05464336 -6.63566108
  -3.36734647  3.81498997 -5.65968452
  -7.21642864  2.87284943 -4.47410341
  -4.58425763 -3.99676759 -5.45004287
  -3.07261897  0.29599167 -5.88837217
  -0.52576495 -4.79322293 -3.55892723
  -4.87901707 -0.47776110 -5.22135992
  -7.42585357  4.61144397 -7.55081840
  -3.48015841 -0.60904601 -4.80826462
  -0.87682888  4.01309596 -8.91678763
  -4.47147807  0.42728426 -6.30145684
  -7.07478524 -4.19487754 -2.19296600
  -3.08189663 -5.21740582 -8.55003730
  -0.88927819  4.59364501 -2.99481563
  -4.86974815  5.03562447 -2.55973607
  -7.06232153 -4.77542495 -8.11491485
  -0.88931419 -1.84883116 -7.18213666
  -3.43967788  4.93935700 -6.37166650
  -7.06232591  1.66703977 -3.92762419
  -4.51193374 -5.12113194 -4.73805885
  -0.28166503 -0.91417539 -4.32006148
  -3.94581094  2.96937587 -8.67431860
  -7.66996894  0.73237494 -6.78969919
  -4.00580413 -3.15114979 -2.43539918
  -1.99441585  0.77203797 -6.29559120
  -1.69165250 -4.35894603 -3.64252520
  -5.95722679 -0.95381908 -4.81416087
  -6.25996622  4.17716964 -7.46720770
  -2.87252697 -1.23175465 -3.90843901
  -1.31181840  2.84162486 -8.84470443
  -5.07911445  1.05000352 -7.20127204
  -6.63979908 -3.02340826 -2.26505549
 


--------------------------------------------------------------------------------------------------------


 k-point  1 :   0.0000 0.0000 0.0000  plane waves:   27033
 k-point  2 :   0.3333 0.0000 0.0000  plane waves:   27029
 k-point  3 :   0.0000 0.5000 0.0000  plane waves:   26996
 k-point  4 :   0.3333 0.5000 0.0000  plane waves:   27002

 maximum and minimum number of plane-waves per node :      1158     1101

 maximum number of plane-waves:     27033
 maximum index in each direction: 
   IXMAX=   14   IYMAX=   21   IZMAX=   23
   IXMIN=  -15   IYMIN=  -21   IZMIN=  -23


 parallel 3D FFT for wavefunctions:
    minimum data exchange during FFTs selected (reduces bandwidth)
 parallel 3D FFT for charge:
    minimum data exchange during FFTs selected (reduces bandwidth)


 FFT grid for exact exchange (Hartree Fock) 
  NGX = 48; NGY = 70; NGZ = 70

 
 Radii for the augmentation spheres in the non-local exchange
 for species   1 augmentation radius   1.263 (default was   1.010)
       energy cutoff for augmentation   2080.0
 for species   2 augmentation radius   0.650 (default was   0.520)
       energy cutoff for augmentation   2080.0
 for species   3 augmentation radius   0.874 (default was   0.699)
       energy cutoff for augmentation   2080.0
 for species   4 augmentation radius   0.886 (default was   0.709)
       energy cutoff for augmentation   2080.0
 for species   5 augmentation radius   0.902 (default was   0.722)
       energy cutoff for augmentation   2080.0

 real space projection operators:
  total allocation   :       3584.35 KBytes
  max/ min on nodes  :        179.73        118.97

 Maximum index for augmentation-charges in exchange          193
  SETUP_FOCK is finished

 total amount of memory used by VASP MPI-rank0    95637. kBytes
=======================================================================

   base      :      30000. kBytes
   nonl-proj :       4813. kBytes
   fftplans  :       4736. kBytes
   grid      :      12960. kBytes
   one-center:        124. kBytes
   HF        :        259. kBytes
   nonlr-proj:       2920. kBytes
   wavefun   :      39825. kBytes
 
     INWAV:  cpu time    1.3992: real time    1.4052
 Broyden mixing: mesh for mixing (old mesh)
   NGX = 29   NGY = 43   NGZ = 47
  (NGX  =120   NGY  =180   NGZ  =192)
  gives a total of  58609 points

 initial charge density was supplied:
 number of electron     264.0000006 magnetization      -0.0000001
 charge density for first step will be calculated from the start-wavefunctions


--------------------------------------------------------------------------------------------------------


 Maximum index for augmentation-charges          867 (set IRDMAX)


--------------------------------------------------------------------------------------------------------


 initial charge from wavefunction
 First call to EWALD:  gamma=   0.177
 Maximum number of real-space cells 3x 3x 3
 Maximum number of reciprocal cells 2x 3x 3

    FEWALD:  cpu time    0.0025: real time    0.0033


--------------------------------------- Iteration      1(   1)  ---------------------------------------


    POTLOK:  cpu time    0.4479: real time    0.4559
    SETDIJ:  cpu time    0.2750: real time    0.3208
    TRIAL :  cpu time  404.4706: real time  405.5063
    CORREC:  cpu time  403.1902: real time  404.0787
    CHARGE:  cpu time    0.1706: real time    0.1710
    --------------------------------------------
      LOOP:  cpu time  808.5703: real time  810.5772

 eigenvalue-minimisations  :     0
 total energy-change (2. order) :-0.6233830E+03  (-0.4293889E-05)
 number of electron     264.0000006 magnetization      -0.0000001
 augmentation part       20.7813321 magnetization       0.0009546

 Free energy of the ion-electron system (eV)
  ---------------------------------------------------
  alpha Z        PSCENC =       332.14303555
  Ewald energy   TEWEN  =       742.95136982
  -Hartree energ DENC   =    -12673.80538569
  -exchange      EXHF   =       662.69925228
  -V(xc)+E(xc)   XCENC  =       732.50586927
  PAW double counting   =     25360.87232368   -25413.85563236
  entropy T*S    EENTRO =        -0.00000000
  eigenvalues    EBANDS =     -2732.70428157
  atomic energy  EATOM  =     12365.81043856
  ---------------------------------------------------
  free energy    TOTEN  =      -623.38301046 eV

  energy without entropy =     -623.38301046  energy(sigma->0) =     -623.38301046
  exchange ACFDT corr.  =        -0.00000000  see jH, gK, PRB 81, 115126


--------------------------------------------------------------------------------------------------------




--------------------------------------- Iteration      1(   2)  ---------------------------------------


    POTLOK:  cpu time    0.4347: real time    0.4356
    SETDIJ:  cpu time    0.2789: real time    0.2795
    TRIAL :  cpu time  402.7634: real time  403.5927
    CORREC:  cpu time  400.9120: real time  401.7173
    CHARGE:  cpu time    0.1809: real time    0.1816
    --------------------------------------------
      LOOP:  cpu time  804.5728: real time  806.2230

 eigenvalue-minimisations  :     0
 total energy-change (2. order) :-0.4292458E-05  (-0.5139090E-05)
 number of electron     264.0000006 magnetization      -0.0000001
 augmentation part       20.7813721 magnetization       0.0009632

 Free energy of the ion-electron system (eV)
  ---------------------------------------------------
  alpha Z        PSCENC =       332.14303555
  Ewald energy   TEWEN  =       742.95136982
  -Hartree energ DENC   =    -12673.80701604
  -exchange      EXHF   =       662.69936405
  -V(xc)+E(xc)   XCENC  =       732.50597053
  PAW double counting   =     25360.95512122   -25413.93940499
  entropy T*S    EENTRO =        -0.00000000
  eigenvalues    EBANDS =     -2732.70189346
  atomic energy  EATOM  =     12365.81043856
  ---------------------------------------------------
  free energy    TOTEN  =      -623.38301475 eV

  energy without entropy =     -623.38301475  energy(sigma->0) =     -623.38301475
  exchange ACFDT corr.  =        -0.00000000  see jH, gK, PRB 81, 115126


--------------------------------------------------------------------------------------------------------




--------------------------------------- Iteration      1(   3)  ---------------------------------------


    POTLOK:  cpu time    0.4333: real time    0.4342
    SETDIJ:  cpu time    0.2792: real time    0.2798
    TRIAL :  cpu time  420.7823: real time  421.6560
    CORREC:  cpu time  409.9504: real time  410.8047
    EDDIAG:  cpu time  400.4683: real time  401.3351
    CHARGE:  cpu time    0.1698: real time    0.1703
    --------------------------------------------
      LOOP:  cpu time 1232.0871: real time 1234.6948

 eigenvalue-minimisations  :     0
 total energy-change (2. order) :-0.5139882E-05  (-0.4592942E-05)
 number of electron     264.0000006 magnetization      -0.0000001
 augmentation part       20.7813154 magnetization       0.0009901

 Free energy of the ion-electron system (eV)
  ---------------------------------------------------
  alpha Z        PSCENC =       332.14303555
  Ewald energy   TEWEN  =       742.95136982
  -Hartree energ DENC   =    -12673.80366450
  -exchange      EXHF   =       662.69936750
  -V(xc)+E(xc)   XCENC  =       732.50614062
  PAW double counting   =     25361.18277172   -25414.16805226
  entropy T*S    EENTRO =        -0.00000000
  eigenvalues    EBANDS =     -2732.70462904
  atomic energy  EATOM  =     12365.81043856
  ---------------------------------------------------
  free energy    TOTEN  =      -623.38301989 eV

  energy without entropy =     -623.38301989  energy(sigma->0) =     -623.38301989
  exchange ACFDT corr.  =        -0.00000000  see jH, gK, PRB 81, 115126


--------------------------------------------------------------------------------------------------------


  average scaling for gradient   0.9534


 average (electrostatic) potential at core
  the test charge radii are     1.0103  0.5201  0.6991  0.7089  0.7215
  (the norm of the test charge is              1.0000)
       1 -43.4409       2 -43.4284       3 -35.2467       4 -35.2446       5 -35.2467
       6 -35.2446       7 -35.3077       8 -35.3061       9 -35.3077      10 -35.3062
      11 -34.1623      12 -34.1615      13 -34.1623      14 -34.1614      15 -34.5462
      16 -34.5460      17 -34.5462      18 -34.5460      19 -34.3672      20 -34.3676
      21 -34.3672      22 -34.3677      23 -34.1455      24 -34.1459      25 -34.1454
      26 -34.1459      27 -34.5512      28 -34.5525      29 -34.5513      30 -34.5525
      31 -52.0450      32 -52.0447      33 -52.0450      34 -52.0447      35 -51.4344
      36 -51.4353      37 -51.4343      38 -51.4353      39 -51.9404      40 -51.9417
      41 -51.9404      42 -51.9417      43 -51.3608      44 -51.3622      45 -51.3608
      46 -51.3622      47 -52.0105      48 -52.0114      49 -52.0105      50 -52.0114
      51 -52.5390      52 -52.5374      53 -52.5389      54 -52.5374      55 -52.5592
      56 -52.5578      57 -52.5592      58 -52.5578      59 -51.6055      60 -51.6076
      61 -51.6055      62 -51.6076      63 -64.9549      64 -64.9553      65 -64.9549
      66 -64.9553      67 -69.7484      68 -69.7455      69 -69.7484      70 -69.7455
      71 -69.6237      72 -69.6230      73 -69.6237      74 -69.6230      75 -69.7078
      76 -69.7062      77 -69.7078      78 -69.7062
 
 
 
 E-fermi :  -0.3555     XC(G=0):  -5.7014     alpha+bet : -5.5182


 spin component 1

 k-point     1 :       0.0000    0.0000    0.0000
  band No.  band energies     occupation 
      1     -24.9554      1.00000
      2     -24.8763      1.00000
      3     -24.4509      1.00000
      4     -24.3141      1.00000
      5     -24.2465      1.00000
      6     -24.1831      1.00000
      7     -23.9763      1.00000
      8     -23.9197      1.00000
      9     -23.4125      1.00000
     10     -23.3687      1.00000
     11     -23.2504      1.00000
     12     -23.1831      1.00000
     13     -22.6616      1.00000
     14     -22.6558      1.00000
     15     -22.6189      1.00000
     16     -22.6170      1.00000
     17     -19.8215      1.00000
     18     -19.6256      1.00000
     19     -19.3125      1.00000
     20     -19.2936      1.00000
     21     -18.9541      1.00000
     22     -18.9364      1.00000
     23     -17.4189      1.00000
     24     -17.4075      1.00000
     25     -17.4047      1.00000
     26     -17.3898      1.00000
     27     -17.1389      1.00000
     28     -17.0810      1.00000
     29     -14.7528      1.00000
     30     -14.6330      1.00000
     31     -13.8910      1.00000
     32     -13.8500      1.00000
     33     -13.7980      1.00000
     34     -13.7809      1.00000
     35     -13.1107      1.00000
     36     -13.0528      1.00000
     37     -12.1764      1.00000
     38     -12.0537      1.00000
     39     -12.0034      1.00000
     40     -11.9336      1.00000
     41     -11.9038      1.00000
     42     -11.8680      1.00000
     43     -10.8634      1.00000
     44     -10.8454      1.00000
     45     -10.8061      1.00000
     46     -10.8019      1.00000
     47     -10.6689      1.00000
     48     -10.6190      1.00000
     49     -10.4280      1.00000
     50     -10.0843      1.00000
     51      -9.8952      1.00000
     52      -9.8407      1.00000
     53      -9.6763      1.00000
     54      -9.5110      1.00000
     55      -9.3808      1.00000
     56      -9.3642      1.00000
     57      -9.2651      1.00000
     58      -9.2481      1.00000
     59      -9.0747      1.00000
     60      -9.0022      1.00000
     61      -8.9152      1.00000
     62      -8.9100      1.00000
     63      -8.7363      1.00000
     64      -8.6303      1.00000
     65      -8.5451      1.00000
     66      -8.2539      1.00000
     67      -8.1567      1.00000
     68      -8.0882      1.00000
     69      -8.0421      1.00000
     70      -8.0237      1.00000
     71      -7.9910      1.00000
     72      -7.9458      1.00000
     73      -7.8909      1.00000
     74      -7.8816      1.00000
     75      -7.8140      1.00000
     76      -7.7951      1.00000
     77      -7.7651      1.00000
     78      -7.7029      1.00000
     79      -7.6573      1.00000
     80      -7.4592      1.00000
     81      -7.3625      1.00000
     82      -7.2379      1.00000
     83      -7.1000      1.00000
     84      -7.0238      1.00000
     85      -6.8469      1.00000
     86      -6.8029      1.00000
     87      -6.6028      1.00000
     88      -6.5251      1.00000
     89      -6.3412      1.00000
     90      -6.2230      1.00000
     91      -6.1767      1.00000
     92      -6.1275      1.00000
     93      -6.0914      1.00000
     94      -6.0910      1.00000
     95      -6.0449      1.00000
     96      -5.8385      1.00000
     97      -5.6851      1.00000
     98      -5.6574      1.00000
     99      -5.5456      1.00000
    100      -5.5205      1.00000
    101      -5.4339      1.00000
    102      -5.3527      1.00000
    103      -5.3051      1.00000
    104      -4.9703      1.00000
    105      -4.9118      1.00000
    106      -4.7639      1.00000
    107      -4.6894      1.00000
    108      -4.6409      1.00000
    109      -4.6317      1.00000
    110      -4.4684      1.00000
    111      -4.4283      1.00000
    112      -4.3197      1.00000
    113      -4.1789      1.00000
    114      -4.1570      1.00000
    115      -4.0714      1.00000
    116      -3.9776      1.00000
    117      -3.9497      1.00000
    118      -3.7806      1.00000
    119      -3.5504      1.00000
    120      -3.4921      1.00000
    121      -3.4270      1.00000
    122      -3.3460      1.00000
    123      -3.3361      1.00000
    124      -3.1620      1.00000
    125      -2.9560      1.00000
    126      -2.4726      1.00000
    127      -2.2940      1.00000
    128      -1.6938      1.00000
    129      -1.6087      1.00000
    130      -1.5665      1.00000
    131      -1.2065      1.00000
    132      -0.6408      1.00000
    133       0.7446      0.00000
    134       1.6269      0.00000
    135       2.4021      0.00000
    136       2.6762      0.00000
    137       2.8980      0.00000
    138       2.9316      0.00000
    139       3.1176      0.00000
    140       3.2034      0.00000
    141       3.2099      0.00000
    142       3.2450      0.00000
    143       3.2659      0.00000
    144       3.2777      0.00000
    145       3.4181      0.00000
    146       3.7495      0.00000
    147       3.9320      0.00000
    148       4.0043      0.00000
    149       4.3788      0.00000
    150       4.6671      0.00000
    151       4.7715      0.00000
    152       4.8100      0.00000
    153       4.9752      0.00000
    154       5.0153      0.00000
    155       5.2794      0.00000
    156       5.3977      0.00000
    157       5.5010      0.00000
    158       5.5629      0.00000
    159       5.7339      0.00000
    160       6.0689      0.00000
    161       6.1646      0.00000
    162       6.4172      0.00000
    163       6.5835      0.00000
    164       6.7122      0.00000
    165       6.7703      0.00000
    166       6.8366      0.00000
    167       6.9173      0.00000
    168       7.0511      0.00000
    169       7.0670      0.00000
    170       7.1171      0.00000
    171       7.1622      0.00000
    172       7.3706      0.00000

 k-point     2 :       0.3333    0.0000    0.0000
  band No.  band energies     occupation 
      1     -24.9261      1.00000
      2     -24.8796      1.00000
      3     -24.4212      1.00000
      4     -24.3568      1.00000
      5     -24.2711      1.00000
      6     -24.2070      1.00000
      7     -23.9777      1.00000
      8     -23.9357      1.00000
      9     -23.3652      1.00000
     10     -23.3234      1.00000
     11     -23.2575      1.00000
     12     -23.2110      1.00000
     13     -22.6600      1.00000
     14     -22.6531      1.00000
     15     -22.6249      1.00000
     16     -22.6167      1.00000
     17     -19.7753      1.00000
     18     -19.6774      1.00000
     19     -19.3105      1.00000
     20     -19.2936      1.00000
     21     -18.9517      1.00000
     22     -18.9421      1.00000
     23     -17.4170      1.00000
     24     -17.4093      1.00000
     25     -17.4001      1.00000
     26     -17.3915      1.00000
     27     -17.1178      1.00000
     28     -17.0885      1.00000
     29     -14.7322      1.00000
     30     -14.6714      1.00000
     31     -13.8736      1.00000
     32     -13.8320      1.00000
     33     -13.8234      1.00000
     34     -13.7913      1.00000
     35     -13.0923      1.00000
     36     -13.0639      1.00000
     37     -12.1856      1.00000
     38     -12.1318      1.00000
     39     -12.0468      1.00000
     40     -11.9774      1.00000
     41     -11.9640      1.00000
     42     -11.9092      1.00000
     43     -10.8569      1.00000
     44     -10.8286      1.00000
     45     -10.6677      1.00000
     46     -10.6247      1.00000
     47     -10.6002      1.00000
     48     -10.5890      1.00000
     49     -10.4780      1.00000
     50     -10.3324      1.00000
     51      -9.8225      1.00000
     52      -9.7955      1.00000
     53      -9.4581      1.00000
     54      -9.4270      1.00000
     55      -9.4007      1.00000
     56      -9.2321      1.00000
     57      -9.1043      1.00000
     58      -9.0990      1.00000
     59      -9.0622      1.00000
     60      -9.0471      1.00000
     61      -8.9884      1.00000
     62      -8.8722      1.00000
     63      -8.8438      1.00000
     64      -8.5860      1.00000
     65      -8.5628      1.00000
     66      -8.4678      1.00000
     67      -8.3622      1.00000
     68      -8.2559      1.00000
     69      -8.1358      1.00000
     70      -7.9757      1.00000
     71      -7.9513      1.00000
     72      -7.8911      1.00000
     73      -7.8678      1.00000
     74      -7.8074      1.00000
     75      -7.7766      1.00000
     76      -7.7270      1.00000
     77      -7.6910      1.00000
     78      -7.6777      1.00000
     79      -7.6128      1.00000
     80      -7.5829      1.00000
     81      -7.5025      1.00000
     82      -7.3632      1.00000
     83      -7.2617      1.00000
     84      -7.0669      1.00000
     85      -6.7713      1.00000
     86      -6.7042      1.00000
     87      -6.6061      1.00000
     88      -6.5142      1.00000
     89      -6.3665      1.00000
     90      -6.2956      1.00000
     91      -6.1865      1.00000
     92      -6.1254      1.00000
     93      -6.0388      1.00000
     94      -5.9690      1.00000
     95      -5.9433      1.00000
     96      -5.8796      1.00000
     97      -5.7978      1.00000
     98      -5.7128      1.00000
     99      -5.7064      1.00000
    100      -5.5949      1.00000
    101      -5.4413      1.00000
    102      -5.3447      1.00000
    103      -5.2793      1.00000
    104      -4.8710      1.00000
    105      -4.8194      1.00000
    106      -4.7856      1.00000
    107      -4.7127      1.00000
    108      -4.6399      1.00000
    109      -4.5502      1.00000
    110      -4.5394      1.00000
    111      -4.5100      1.00000
    112      -4.3887      1.00000
    113      -4.2632      1.00000
    114      -4.2076      1.00000
    115      -4.1041      1.00000
    116      -4.0169      1.00000
    117      -3.9027      1.00000
    118      -3.8129      1.00000
    119      -3.5659      1.00000
    120      -3.4696      1.00000
    121      -3.4463      1.00000
    122      -3.3691      1.00000
    123      -3.3568      1.00000
    124      -2.7685      1.00000
    125      -2.7576      1.00000
    126      -2.5215      1.00000
    127      -2.1412      1.00000
    128      -1.7305      1.00000
    129      -1.6404      1.00000
    130      -1.5678      1.00000
    131      -1.3682      1.00000
    132      -0.4100      1.00000
    133       0.9096      0.00000
    134       1.3825      0.00000
    135       2.6284      0.00000
    136       2.7991      0.00000
    137       2.9887      0.00000
    138       3.0024      0.00000
    139       3.0637      0.00000
    140       3.1384      0.00000
    141       3.1986      0.00000
    142       3.2194      0.00000
    143       3.2230      0.00000
    144       3.2708      0.00000
    145       3.5448      0.00000
    146       3.7936      0.00000
    147       3.8399      0.00000
    148       4.0141      0.00000
    149       4.4461      0.00000
    150       4.5352      0.00000
    151       4.7050      0.00000
    152       4.7739      0.00000
    153       4.8260      0.00000
    154       4.8408      0.00000
    155       4.8697      0.00000
    156       5.2330      0.00000
    157       5.6140      0.00000
    158       5.7051      0.00000
    159       5.8288      0.00000
    160       6.0526      0.00000
    161       6.0692      0.00000
    162       6.2897      0.00000
    163       6.3588      0.00000
    164       6.5428      0.00000
    165       6.7483      0.00000
    166       6.8570      0.00000
    167       6.9608      0.00000
    168       7.0282      0.00000
    169       7.1948      0.00000
    170       7.3591      0.00000
    171       7.3960      0.00000
    172       7.4080      0.00000

 k-point     3 :       0.0000    0.5000    0.0000
  band No.  band energies     occupation 
      1     -24.9330      1.00000
      2     -24.9059      1.00000
      3     -24.3831      1.00000
      4     -24.3804      1.00000
      5     -24.2484      1.00000
      6     -24.1843      1.00000
      7     -23.9620      1.00000
      8     -23.9240      1.00000
      9     -23.4096      1.00000
     10     -23.3799      1.00000
     11     -23.2247      1.00000
     12     -23.2018      1.00000
     13     -22.6635      1.00000
     14     -22.6552      1.00000
     15     -22.6213      1.00000
     16     -22.6137      1.00000
     17     -19.8201      1.00000
     18     -19.6244      1.00000
     19     -19.3118      1.00000
     20     -19.2948      1.00000
     21     -18.9566      1.00000
     22     -18.9387      1.00000
     23     -17.4161      1.00000
     24     -17.4107      1.00000
     25     -17.4042      1.00000
     26     -17.3898      1.00000
     27     -17.1364      1.00000
     28     -17.0766      1.00000
     29     -14.7574      1.00000
     30     -14.6395      1.00000
     31     -13.8954      1.00000
     32     -13.8479      1.00000
     33     -13.7923      1.00000
     34     -13.7841      1.00000
     35     -13.1077      1.00000
     36     -13.0513      1.00000
     37     -12.0958      1.00000
     38     -12.0740      1.00000
     39     -12.0354      1.00000
     40     -11.9437      1.00000
     41     -11.9181      1.00000
     42     -11.9062      1.00000
     43     -10.8592      1.00000
     44     -10.8233      1.00000
     45     -10.7478      1.00000
     46     -10.6558      1.00000
     47     -10.6444      1.00000
     48     -10.5754      1.00000
     49     -10.4603      1.00000
     50     -10.4436      1.00000
     51      -9.8854      1.00000
     52      -9.8036      1.00000
     53      -9.6347      1.00000
     54      -9.5669      1.00000
     55      -9.3973      1.00000
     56      -9.3241      1.00000
     57      -9.1834      1.00000
     58      -9.0837      1.00000
     59      -9.0346      1.00000
     60      -9.0149      1.00000
     61      -8.8979      1.00000
     62      -8.8514      1.00000
     63      -8.8319      1.00000
     64      -8.7637      1.00000
     65      -8.5541      1.00000
     66      -8.4858      1.00000
     67      -8.2531      1.00000
     68      -8.1734      1.00000
     69      -8.1202      1.00000
     70      -8.0555      1.00000
     71      -7.9590      1.00000
     72      -7.9194      1.00000
     73      -7.8366      1.00000
     74      -7.7910      1.00000
     75      -7.7767      1.00000
     76      -7.7274      1.00000
     77      -7.6203      1.00000
     78      -7.6188      1.00000
     79      -7.4868      1.00000
     80      -7.3875      1.00000
     81      -7.3598      1.00000
     82      -7.3144      1.00000
     83      -7.2596      1.00000
     84      -7.0315      1.00000
     85      -6.7840      1.00000
     86      -6.7343      1.00000
     87      -6.7092      1.00000
     88      -6.5350      1.00000
     89      -6.4016      1.00000
     90      -6.3199      1.00000
     91      -6.2749      1.00000
     92      -6.1584      1.00000
     93      -6.1198      1.00000
     94      -5.9199      1.00000
     95      -5.9093      1.00000
     96      -5.8672      1.00000
     97      -5.7278      1.00000
     98      -5.6541      1.00000
     99      -5.5489      1.00000
    100      -5.5169      1.00000
    101      -5.4277      1.00000
    102      -5.3424      1.00000
    103      -5.3099      1.00000
    104      -4.9106      1.00000
    105      -4.8334      1.00000
    106      -4.7732      1.00000
    107      -4.7652      1.00000
    108      -4.6735      1.00000
    109      -4.6244      1.00000
    110      -4.5168      1.00000
    111      -4.4752      1.00000
    112      -4.2819      1.00000
    113      -4.2111      1.00000
    114      -4.0720      1.00000
    115      -4.0498      1.00000
    116      -3.9632      1.00000
    117      -3.9195      1.00000
    118      -3.8747      1.00000
    119      -3.5932      1.00000
    120      -3.4674      1.00000
    121      -3.4289      1.00000
    122      -3.3351      1.00000
    123      -3.3349      1.00000
    124      -3.1544      1.00000
    125      -2.9769      1.00000
    126      -2.5088      1.00000
    127      -2.2426      1.00000
    128      -1.7277      1.00000
    129      -1.5949      1.00000
    130      -1.5811      1.00000
    131      -1.2077      1.00000
    132      -0.5199      1.00000
    133       0.6528      0.00000
    134       1.5942      0.00000
    135       2.4545      0.00000
    136       2.6937      0.00000
    137       2.8118      0.00000
    138       2.9494      0.00000
    139       3.0784      0.00000
    140       3.1903      0.00000
    141       3.2147      0.00000
    142       3.2630      0.00000
    143       3.2802      0.00000
    144       3.3666      0.00000
    145       3.4379      0.00000
    146       3.8169      0.00000
    147       3.9401      0.00000
    148       4.0005      0.00000
    149       4.3444      0.00000
    150       4.6009      0.00000
    151       4.6353      0.00000
    152       4.7864      0.00000
    153       5.0247      0.00000
    154       5.0639      0.00000
    155       5.1228      0.00000
    156       5.5083      0.00000
    157       5.5557      0.00000
    158       5.6547      0.00000
    159       5.8498      0.00000
    160       5.9253      0.00000
    161       6.2019      0.00000
    162       6.2171      0.00000
    163       6.4147      0.00000
    164       6.6569      0.00000
    165       6.7205      0.00000
    166       6.8217      0.00000
    167       7.0082      0.00000
    168       7.0345      0.00000
    169       7.1783      0.00000
    170       7.2306      0.00000
    171       7.3512      0.00000
    172       7.5736      0.00000

 k-point     4 :       0.3333    0.5000    0.0000
  band No.  band energies     occupation 
      1     -24.9163      1.00000
      2     -24.8906      1.00000
      3     -24.3966      1.00000
      4     -24.3881      1.00000
      5     -24.2669      1.00000
      6     -24.2032      1.00000
      7     -23.9760      1.00000
      8     -23.9368      1.00000
      9     -23.3646      1.00000
     10     -23.3289      1.00000
     11     -23.2467      1.00000
     12     -23.2176      1.00000
     13     -22.6603      1.00000
     14     -22.6533      1.00000
     15     -22.6228      1.00000
     16     -22.6183      1.00000
     17     -19.7756      1.00000
     18     -19.6782      1.00000
     19     -19.3102      1.00000
     20     -19.2936      1.00000
     21     -18.9516      1.00000
     22     -18.9397      1.00000
     23     -17.4150      1.00000
     24     -17.4081      1.00000
     25     -17.4024      1.00000
     26     -17.3924      1.00000
     27     -17.1194      1.00000
     28     -17.0901      1.00000
     29     -14.7289      1.00000
     30     -14.6692      1.00000
     31     -13.8743      1.00000
     32     -13.8322      1.00000
     33     -13.8192      1.00000
     34     -13.7946      1.00000
     35     -13.0930      1.00000
     36     -13.0647      1.00000
     37     -12.2078      1.00000
     38     -12.1613      1.00000
     39     -12.0081      1.00000
     40     -11.9935      1.00000
     41     -11.9189      1.00000
     42     -11.9111      1.00000
     43     -10.8573      1.00000
     44     -10.8207      1.00000
     45     -10.7449      1.00000
     46     -10.7140      1.00000
     47     -10.6308      1.00000
     48     -10.6155      1.00000
     49     -10.2899      1.00000
     50     -10.2270      1.00000
     51      -9.8283      1.00000
     52      -9.8033      1.00000
     53      -9.5080      1.00000
     54      -9.4556      1.00000
     55      -9.4274      1.00000
     56      -9.3474      1.00000
     57      -9.1740      1.00000
     58      -9.1051      1.00000
     59      -9.0403      1.00000
     60      -8.9728      1.00000
     61      -8.8816      1.00000
     62      -8.8668      1.00000
     63      -8.7101      1.00000
     64      -8.6014      1.00000
     65      -8.5690      1.00000
     66      -8.4971      1.00000
     67      -8.3524      1.00000
     68      -8.2994      1.00000
     69      -8.2293      1.00000
     70      -8.0782      1.00000
     71      -7.9329      1.00000
     72      -7.8920      1.00000
     73      -7.8540      1.00000
     74      -7.8034      1.00000
     75      -7.7601      1.00000
     76      -7.7239      1.00000
     77      -7.7000      1.00000
     78      -7.6671      1.00000
     79      -7.5974      1.00000
     80      -7.5153      1.00000
     81      -7.4918      1.00000
     82      -7.3777      1.00000
     83      -7.1662      1.00000
     84      -6.9909      1.00000
     85      -6.8157      1.00000
     86      -6.7472      1.00000
     87      -6.6400      1.00000
     88      -6.5503      1.00000
     89      -6.2953      1.00000
     90      -6.2866      1.00000
     91      -6.2044      1.00000
     92      -6.1705      1.00000
     93      -6.0845      1.00000
     94      -5.9829      1.00000
     95      -5.9376      1.00000
     96      -5.8840      1.00000
     97      -5.7896      1.00000
     98      -5.7295      1.00000
     99      -5.6690      1.00000
    100      -5.5915      1.00000
    101      -5.4386      1.00000
    102      -5.3736      1.00000
    103      -5.2669      1.00000
    104      -4.9041      1.00000
    105      -4.7807      1.00000
    106      -4.7519      1.00000
    107      -4.7218      1.00000
    108      -4.6125      1.00000
    109      -4.5755      1.00000
    110      -4.5258      1.00000
    111      -4.5138      1.00000
    112      -4.4278      1.00000
    113      -4.2442      1.00000
    114      -4.2009      1.00000
    115      -4.0920      1.00000
    116      -4.0047      1.00000
    117      -3.9227      1.00000
    118      -3.8316      1.00000
    119      -3.5803      1.00000
    120      -3.4690      1.00000
    121      -3.4214      1.00000
    122      -3.3848      1.00000
    123      -3.3511      1.00000
    124      -2.7608      1.00000
    125      -2.7351      1.00000
    126      -2.5217      1.00000
    127      -2.1065      1.00000
    128      -1.7451      1.00000
    129      -1.6608      1.00000
    130      -1.5756      1.00000
    131      -1.3798      1.00000
    132      -0.4494      1.00000
    133       0.9451      0.00000
    134       1.4127      0.00000
    135       2.6521      0.00000
    136       2.7865      0.00000
    137       2.9451      0.00000
    138       2.9987      0.00000
    139       3.0573      0.00000
    140       3.1327      0.00000
    141       3.2065      0.00000
    142       3.2251      0.00000
    143       3.2476      0.00000
    144       3.2995      0.00000
    145       3.5231      0.00000
    146       3.7639      0.00000
    147       3.8427      0.00000
    148       4.0349      0.00000
    149       4.4301      0.00000
    150       4.4655      0.00000
    151       4.7374      0.00000
    152       4.7452      0.00000
    153       4.8087      0.00000
    154       4.9085      0.00000
    155       4.9491      0.00000
    156       5.3615      0.00000
    157       5.5504      0.00000
    158       5.6759      0.00000
    159       5.7420      0.00000
    160       5.8545      0.00000
    161       6.0529      0.00000
    162       6.3820      0.00000
    163       6.4238      0.00000
    164       6.5770      0.00000
    165       6.6890      0.00000
    166       6.7015      0.00000
    167       7.0147      0.00000
    168       7.0920      0.00000
    169       7.1436      0.00000
    170       7.2930      0.00000
    171       7.4787      0.00000
    172       7.5751      0.00000

 spin component 2

 k-point     1 :       0.0000    0.0000    0.0000
  band No.  band energies     occupation 
      1     -24.9549      1.00000
      2     -24.8770      1.00000
      3     -24.4509      1.00000
      4     -24.3141      1.00000
      5     -24.2457      1.00000
      6     -24.1840      1.00000
      7     -23.9754      1.00000
      8     -23.9204      1.00000
      9     -23.4112      1.00000
     10     -23.3675      1.00000
     11     -23.2516      1.00000
     12     -23.1841      1.00000
     13     -22.6615      1.00000
     14     -22.6558      1.00000
     15     -22.6192      1.00000
     16     -22.6173      1.00000
     17     -19.8216      1.00000
     18     -19.6257      1.00000
     19     -19.3104      1.00000
     20     -19.2956      1.00000
     21     -18.9543      1.00000
     22     -18.9363      1.00000
     23     -17.4189      1.00000
     24     -17.4075      1.00000
     25     -17.4048      1.00000
     26     -17.3899      1.00000
     27     -17.1391      1.00000
     28     -17.0809      1.00000
     29     -14.7530      1.00000
     30     -14.6330      1.00000
     31     -13.8910      1.00000
     32     -13.8500      1.00000
     33     -13.7980      1.00000
     34     -13.7810      1.00000
     35     -13.1108      1.00000
[...]
   0.397E+02 0.450E+02 0.771E+02   -.398E+02 -.451E+02 -.772E+02   0.569E-01 -.512E-02 0.531E-01
   -.397E+02 -.460E+02 -.766E+02   0.398E+02 0.460E+02 0.766E+02   -.500E-01 -.574E-01 -.217E-01
   -.397E+02 -.450E+02 -.771E+02   0.398E+02 0.451E+02 0.772E+02   -.569E-01 0.507E-02 -.531E-01
   0.397E+02 0.460E+02 0.766E+02   -.398E+02 -.460E+02 -.766E+02   0.500E-01 0.574E-01 0.217E-01
   -.810E+01 0.163E+03 0.122E+01   0.831E+01 -.164E+03 -.367E+00   -.208E+00 0.138E+01 -.795E+00
   -.163E+02 0.874E+02 -.137E+03   0.164E+02 -.889E+02 0.137E+03   -.663E-01 0.143E+01 -.722E+00
   0.810E+01 -.163E+03 -.122E+01   -.831E+01 0.164E+03 0.368E+00   0.208E+00 -.138E+01 0.795E+00
   0.163E+02 -.874E+02 0.137E+03   -.164E+02 0.889E+02 -.137E+03   0.662E-01 -.143E+01 0.722E+00
   -.540E+02 0.944E+02 -.183E+02   0.556E+02 -.980E+02 0.213E+02   -.162E+01 0.341E+01 -.292E+01
   0.376E+02 0.736E+02 -.724E+02   -.384E+02 -.784E+02 0.739E+02   0.849E+00 0.450E+01 -.135E+01
   0.540E+02 -.944E+02 0.183E+02   -.556E+02 0.980E+02 -.213E+02   0.162E+01 -.341E+01 0.292E+01
   -.376E+02 -.736E+02 0.724E+02   0.384E+02 0.784E+02 -.739E+02   -.849E+00 -.450E+01 0.135E+01
   0.398E+02 -.185E+01 -.475E+01   -.435E+02 -.809E-01 0.603E+01   0.331E+01 0.174E+01 -.114E+01
   -.394E+02 -.303E+01 0.720E+01   0.435E+02 0.147E+01 -.660E+01   -.361E+01 0.139E+01 -.552E+00
   -.398E+02 0.185E+01 0.475E+01   0.435E+02 0.786E-01 -.602E+01   -.331E+01 -.174E+01 0.114E+01
   0.395E+02 0.303E+01 -.720E+01   -.435E+02 -.147E+01 0.660E+01   0.361E+01 -.139E+01 0.552E+00
   0.489E+01 -.347E+02 -.693E+02   -.717E+01 0.370E+02 0.662E+02   0.208E+01 -.210E+01 0.285E+01
   -.531E+01 0.382E+02 0.674E+02   0.696E+01 -.340E+02 -.678E+02   -.152E+01 -.380E+01 0.348E+00
   -.489E+01 0.347E+02 0.693E+02   0.718E+01 -.370E+02 -.662E+02   -.208E+01 0.210E+01 -.285E+01
   0.531E+01 -.382E+02 -.674E+02   -.697E+01 0.340E+02 0.678E+02   0.152E+01 0.380E+01 -.348E+00
   -.247E+02 0.898E+02 -.340E+02   0.247E+02 -.905E+02 0.342E+02   0.352E-01 0.744E+00 -.203E+00
   0.838E+01 0.799E+02 -.579E+02   -.824E+01 -.805E+02 0.584E+02   -.161E+00 0.563E+00 -.501E+00
   0.247E+02 -.898E+02 0.339E+02   -.247E+02 0.905E+02 -.342E+02   -.352E-01 -.744E+00 0.203E+00
   -.838E+01 -.799E+02 0.579E+02   0.824E+01 0.805E+02 -.584E+02   0.161E+00 -.563E+00 0.501E+00
   -.348E+02 -.287E+02 0.125E+03   0.491E+02 0.504E+02 -.116E+03   -.132E+02 -.200E+02 -.830E+01
   0.486E+02 -.115E+03 -.478E+02   -.652E+02 0.117E+03 0.260E+02   0.153E+02 -.186E+01 0.201E+02
   0.348E+02 0.287E+02 -.125E+03   -.492E+02 -.504E+02 0.116E+03   0.132E+02 0.200E+02 0.830E+01
   -.486E+02 0.115E+03 0.478E+02   0.652E+02 -.117E+03 -.260E+02   -.153E+02 0.186E+01 -.201E+02
   -.407E+02 -.825E+02 -.336E+03   0.528E+02 0.112E+03 0.327E+03   -.106E+02 -.258E+02 0.785E+01
   0.252E+02 0.241E+03 0.250E+03   -.422E+02 -.220E+03 -.269E+03   0.149E+02 -.188E+02 0.162E+02
   0.407E+02 0.825E+02 0.336E+03   -.528E+02 -.112E+03 -.327E+03   0.106E+02 0.258E+02 -.785E+01
   -.252E+02 -.241E+03 -.250E+03   0.422E+02 0.220E+03 0.269E+03   -.149E+02 0.188E+02 -.162E+02
   -.340E+02 -.127E+03 0.744E+02   0.709E+02 0.151E+03 -.928E+02   -.321E+02 -.207E+02 0.160E+02
   0.577E+02 -.125E+03 0.615E+02   -.991E+02 0.148E+03 -.681E+02   0.360E+02 -.197E+02 0.578E+01
   0.340E+02 0.127E+03 -.744E+02   -.709E+02 -.151E+03 0.928E+02   0.321E+02 0.207E+02 -.160E+02
   -.577E+02 0.125E+03 -.615E+02   0.991E+02 -.148E+03 0.681E+02   -.360E+02 0.197E+02 -.578E+01
   -.102E+03 -.261E+02 -.352E+03   0.124E+03 0.309E+01 0.387E+03   -.199E+02 0.201E+02 -.305E+02
   0.756E+02 0.293E+03 0.207E+03   -.919E+02 -.338E+03 -.205E+03   0.142E+02 0.390E+02 -.153E+01
   0.102E+03 0.261E+02 0.352E+03   -.124E+03 -.308E+01 -.387E+03   0.199E+02 -.201E+02 0.305E+02
   -.756E+02 -.293E+03 -.207E+03   0.918E+02 0.338E+03 0.205E+03   -.142E+02 -.390E+02 0.153E+01
 -----------------------------------------------------------------------------------------------
   -.793E-04 0.732E-03 -.293E-03   -.199E-12 0.114E-12 -.284E-13   0.656E-04 -.659E-03 0.268E-03
 
 
 POSITION                                       TOTAL-FORCE (eV/Angst)
 -----------------------------------------------------------------------------------
     -0.03803     -0.07983     -6.23589         0.000012      0.000007      0.000016
     -4.46239      4.97361     -8.29609         0.000020     -0.000023      0.000019
     -1.22553     -1.08685     -4.07365         0.013118     -0.001502      0.004988
     -2.97019      2.81141     -8.74197        -0.013430     -0.005604      0.000619
     -6.72610      0.90506     -7.03610        -0.013065      0.001521     -0.004983
     -4.98143     -2.99319     -2.36776         0.013483      0.005617     -0.000624
     -7.61398     -1.71092     -2.67566         0.011519     -0.014572     -0.007166
     -4.34487      2.23901     -8.14311        -0.009494     -0.002306      0.016239
     -0.33765      1.52912     -8.43411        -0.011459      0.014512      0.007192
     -3.60676     -2.42078     -2.96661         0.009506      0.002336     -0.016248
     -1.83192     -0.73539     -8.63149         0.004606      0.014342      0.006680
     -2.79617      6.88229     -6.57071        -0.005543      0.001655     -0.015644
     -6.11972      0.55361     -2.47826        -0.004612     -0.014280     -0.006715
     -5.15545     -7.06406     -4.53901         0.005552     -0.001595      0.015614
     -3.14434     -2.61193     -9.53494         0.011703      0.004180      0.004274
     -1.29811      6.82146     -4.61800        -0.011621     -0.004212     -0.005365
     -4.80730      2.43015     -1.57483        -0.011718     -0.004156     -0.004311
     -6.65351     -7.00323     -6.49172         0.011627      0.004189      0.005371
     -1.29163     -5.11209     -6.56247        -0.015805      0.000080      0.005211
     -2.50690      2.73246     -4.03629         0.016434     -0.001504     -0.004085
     -6.66001      4.93030     -4.54731         0.015793      0.000001     -0.005252
     -5.44470     -2.91424     -7.07344        -0.016426      0.001555      0.004050
     -0.01567     -3.12601     -5.83153        -0.018666      0.012570      0.011942
     -3.99971      3.00116     -5.98711         0.017212     -0.000722     -0.017352
     -7.93597      2.94421     -5.27823         0.018645     -0.012560     -0.011979
     -3.95189     -3.18294     -5.12261        -0.017224      0.000717      0.017343
     -2.87349     -6.12155     -7.98571        -0.010802      0.009619      0.002759
     -0.91695      3.60927     -2.53698         0.009487      0.004188     -0.010363
     -5.07815      5.93977     -3.12406         0.010798     -0.009586     -0.002777
     -7.03465     -3.79105     -8.57275        -0.009501     -0.004198      0.010367
     -1.74195     -1.72752     -8.20744         0.002140      0.015606     -0.002974
     -2.70194      5.98377     -5.97407        -0.007359      0.006235     -0.012090
     -6.20969      1.54573     -2.90232        -0.002166     -0.015638      0.002957
     -5.24967     -6.16554     -5.13565         0.007316     -0.006397      0.012096
     -2.47368     -2.78313     -8.70293        -0.011688     -0.008316     -0.012431
     -1.86449      5.93785     -4.88228         0.013767      0.006410      0.015145
     -5.47796      2.60135     -2.40683         0.011702      0.008303      0.012472
     -6.08711     -6.11963     -6.22745        -0.013782     -0.006283     -0.015175
     -2.34331     -4.04637     -8.11644        -0.017196     -0.043241     -0.000400
     -1.75640      4.75266     -4.14706         0.022114     -0.018822      0.027861
     -5.60834      3.86459     -2.99333         0.017153      0.043137      0.000387
     -6.19520     -4.93444     -6.96267        -0.022092      0.018756     -0.027842
     -1.44288     -4.16165     -7.05884        -0.007301      0.007368      0.018329
     -2.54006      3.67785     -4.56331         0.008494     -0.007763     -0.012485
     -6.50877      3.97986     -4.05093         0.007350     -0.007413     -0.018264
     -5.41154     -3.85962     -6.54643        -0.008559      0.007652      0.012532
     -0.73521     -3.05464     -6.63566        -0.018861     -0.014622      0.001217
     -3.36735      3.81499     -5.65968         0.019261     -0.002298      0.006441
     -7.21643      2.87285     -4.47410         0.018848      0.014614     -0.001215
     -4.58426     -3.99677     -5.45004        -0.019227      0.002389     -0.006480
     -3.07262      0.29599     -5.88837        -0.012114     -0.008650      0.003193
     -0.52576     -4.79322     -3.55893         0.015784     -0.008081      0.003944
     -4.87902     -0.47776     -5.22136         0.011938      0.008571     -0.003119
     -7.42585      4.61144     -7.55082        -0.015711      0.008023     -0.003953
     -3.48016     -0.60905     -4.80826         0.009230      0.027622     -0.015249
     -0.87683      4.01310     -8.91679        -0.016973      0.025928     -0.014166
     -4.47148      0.42728     -6.30146        -0.009295     -0.027630      0.015229
     -7.07479     -4.19488     -2.19297         0.016741     -0.025997      0.014187
     -3.08190     -5.21741     -8.55004         0.000299      0.027658      0.009176
     -0.88928      4.59365     -2.99482        -0.003915      0.010111     -0.021161
     -4.86975      5.03562     -2.55974        -0.000269     -0.027649     -0.009145
     -7.06232     -4.77542     -8.11491         0.003929     -0.010062      0.021141
     -0.88931     -1.84883     -7.18214         0.007228     -0.008054      0.009856
     -3.43968      4.93936     -6.37167         0.000578     -0.012407      0.007403
     -7.06233      1.66704     -3.92762        -0.007190      0.008037     -0.009787
     -4.51193     -5.12113     -4.73806        -0.000541      0.012415     -0.007337
     -0.28167     -0.91418     -4.32006        -0.016280      0.018799     -0.003064
     -3.94581      2.96938     -8.67432         0.015527      0.012803     -0.018228
     -7.66997      0.73237     -6.78970         0.016140     -0.018721      0.003033
     -4.00580     -3.15115     -2.43540        -0.015610     -0.012819      0.018234
     -1.99442      0.77204     -6.29559         0.035766      0.018762     -0.011048
     -1.69165     -4.35895     -3.64253        -0.038006      0.015677     -0.009512
     -5.95723     -0.95382     -4.81416        -0.035526     -0.018715      0.011013
     -6.25997      4.17717     -7.46721         0.038072     -0.015688      0.009507
     -2.87253     -1.23175     -3.90844        -0.016223     -0.003690      0.033304
     -1.31182      2.84162     -8.84470         0.021635     -0.026815     -0.016721
     -5.07911      1.05000     -7.20127         0.016269      0.003680     -0.033351
     -6.63980     -3.02341     -2.26506        -0.021544      0.026944      0.016722
 -----------------------------------------------------------------------------------
    total drift:                                0.000004     -0.000003     -0.000003


--------------------------------------------------------------------------------------------------------



  FREE ENERGIE OF THE ION-ELECTRON SYSTEM (eV)
  ---------------------------------------------------
  free  energy   TOTEN  =      -628.28976133 eV

  energy  without entropy=     -628.28976133  energy(sigma->0) =     -628.28976133
 


--------------------------------------------------------------------------------------------------------


    POTLOK:  cpu time    0.7185: real time    0.7213


--------------------------------------------------------------------------------------------------------


 writing wavefunctions
     LOOP+:  cpu time 3226.0541: real time 3235.2735
    4ORBIT:  cpu time    0.0000: real time    0.0000
 


 total charge     
 
# of ion       s       p       d       tot
------------------------------------------
    1        0.279   0.368   5.988   6.635
    2        0.279   0.368   5.989   6.636
    3        0.575   0.132   0.000   0.708
    4        0.575   0.132   0.000   0.708
    5        0.575   0.132   0.000   0.708
    6        0.575   0.132   0.000   0.708
    7        0.578   0.133   0.000   0.711
    8        0.578   0.133   0.000   0.711
    9        0.578   0.133   0.000   0.711
   10        0.578   0.133   0.000   0.711
   11        0.653   0.050   0.000   0.703
   12        0.653   0.050   0.000   0.703
   13        0.653   0.050   0.000   0.703
   14        0.653   0.050   0.000   0.703
   15        0.653   0.049   0.000   0.702
   16        0.653   0.049   0.000   0.702
   17        0.653   0.049   0.000   0.702
   18        0.653   0.049   0.000   0.702
   19        0.650   0.049   0.000   0.699
   20        0.650   0.049   0.000   0.699
   21        0.650   0.049   0.000   0.699
   22        0.650   0.049   0.000   0.699
   23        0.655   0.051   0.000   0.706
   24        0.655   0.051   0.000   0.706
   25        0.655   0.051   0.000   0.706
   26        0.655   0.051   0.000   0.706
   27        0.654   0.048   0.000   0.702
   28        0.654   0.048   0.000   0.702
   29        0.654   0.048   0.000   0.702
   30        0.654   0.048   0.000   0.702
   31        0.882   1.766   0.000   2.648
   32        0.882   1.766   0.000   2.648
   33        0.882   1.766   0.000   2.648
   34        0.882   1.766   0.000   2.648
   35        0.879   1.797   0.000   2.676
   36        0.879   1.797   0.000   2.676
   37        0.879   1.797   0.000   2.676
   38        0.879   1.797   0.000   2.676
   39        0.877   1.775   0.000   2.652
   40        0.877   1.775   0.000   2.652
   41        0.877   1.775   0.000   2.652
   42        0.877   1.775   0.000   2.652
   43        0.883   1.794   0.000   2.677
   44        0.883   1.794   0.000   2.677
   45        0.883   1.794   0.000   2.677
   46        0.883   1.794   0.000   2.677
   47        0.884   1.768   0.000   2.652
   48        0.884   1.768   0.000   2.652
   49        0.884   1.768   0.000   2.652
   50        0.884   1.768   0.000   2.652
   51        0.887   1.720   0.000   2.607
   52        0.887   1.720   0.000   2.606
   53        0.887   1.720   0.000   2.607
   54        0.887   1.720   0.000   2.606
   55        0.888   1.716   0.000   2.604
   56        0.888   1.716   0.000   2.604
   57        0.888   1.716   0.000   2.604
   58        0.888   1.716   0.000   2.604
   59        0.881   1.776   0.000   2.657
   60        0.881   1.776   0.000   2.657
   61        0.881   1.776   0.000   2.657
   62        0.881   1.776   0.000   2.657
   63        1.257   2.680   0.000   3.938
   64        1.257   2.680   0.000   3.937
   65        1.257   2.680   0.000   3.938
   66        1.257   2.680   0.000   3.937
   67        1.558   3.705   0.000   5.262
   68        1.558   3.705   0.000   5.262
   69        1.558   3.705   0.000   5.262
   70        1.558   3.705   0.000   5.262
   71        1.576   3.609   0.000   5.186
   72        1.576   3.609   0.000   5.186
   73        1.576   3.609   0.000   5.186
   74        1.576   3.609   0.000   5.186
   75        1.579   3.604   0.000   5.184
   76        1.579   3.604   0.000   5.184
   77        1.579   3.604   0.000   5.184
   78        1.579   3.604   0.000   5.184
--------------------------------------------------
tot         70.353 113.626  11.976 195.955
 


 magnetization (x)
 
# of ion       s       p       d       tot
------------------------------------------
    1        0.013   0.014   3.713   3.740
    2       -0.013  -0.014  -3.712  -3.739
    3        0.001   0.001   0.000   0.001
    4       -0.001  -0.001   0.000  -0.001
    5        0.001   0.001   0.000   0.001
    6       -0.001  -0.001   0.000  -0.001
    7        0.001   0.001   0.000   0.002
    8       -0.001  -0.001   0.000  -0.002
    9        0.001   0.001   0.000   0.002
   10       -0.001  -0.001   0.000  -0.002
   11        0.001  -0.000   0.000   0.001
   12       -0.001   0.000   0.000  -0.001
   13        0.001  -0.000   0.000   0.001
   14       -0.001   0.000   0.000  -0.001
   15        0.000   0.000   0.000   0.000
   16       -0.000  -0.000   0.000  -0.000
   17        0.000   0.000   0.000   0.000
   18       -0.000  -0.000   0.000  -0.000
   19        0.000   0.000   0.000   0.000
   20       -0.000  -0.000   0.000  -0.000
   21        0.000   0.000   0.000   0.000
   22       -0.000  -0.000   0.000  -0.000
   23        0.001  -0.000   0.000   0.001
   24       -0.001   0.000   0.000  -0.001
   25        0.001  -0.000   0.000   0.001
   26       -0.001   0.000   0.000  -0.001
   27        0.000  -0.000   0.000   0.000
   28       -0.000   0.000   0.000  -0.000
   29        0.000  -0.000   0.000   0.000
   30       -0.000   0.000   0.000  -0.000
   31       -0.000  -0.004   0.000  -0.005
   32        0.000   0.004   0.000   0.005
   33       -0.000  -0.004   0.000  -0.005
   34        0.000   0.004   0.000   0.005
   35        0.001   0.003   0.000   0.004
   36       -0.001  -0.003   0.000  -0.004
   37        0.001   0.003   0.000   0.004
   38       -0.001  -0.003   0.000  -0.004
   39       -0.000  -0.006   0.000  -0.006
   40        0.000   0.006   0.000   0.006
   41       -0.000  -0.006   0.000  -0.006
   42        0.000   0.006   0.000   0.006
   43        0.001   0.003   0.000   0.004
   44       -0.001  -0.003   0.000  -0.004
   45        0.001   0.003   0.000   0.004
   46       -0.001  -0.003   0.000  -0.004
   47       -0.000  -0.005   0.000  -0.006
   48        0.000   0.005   0.000   0.006
   49       -0.000  -0.005   0.000  -0.006
   50        0.000   0.005   0.000   0.006
   51        0.000   0.000   0.000   0.000
   52       -0.000  -0.000   0.000  -0.000
   53        0.000   0.000   0.000   0.000
   54       -0.000  -0.000   0.000  -0.000
   55        0.001   0.002   0.000   0.003
   56       -0.001  -0.002   0.000  -0.003
   57        0.001   0.002   0.000   0.003
   58       -0.001  -0.002   0.000  -0.003
   59       -0.000  -0.002   0.000  -0.002
   60        0.000   0.002   0.000   0.002
   61       -0.000  -0.002   0.000  -0.002
   62        0.000   0.002   0.000   0.002
   63        0.007   0.022   0.000   0.029
   64       -0.007  -0.022   0.000  -0.029
   65        0.007   0.022   0.000   0.029
   66       -0.007  -0.022   0.000  -0.029
   67        0.005   0.028   0.000   0.032
   68       -0.005  -0.027   0.000  -0.032
   69        0.005   0.028   0.000   0.032
   70       -0.005  -0.027   0.000  -0.032
   71        0.005   0.024   0.000   0.029
   72       -0.005  -0.024   0.000  -0.029
   73        0.005   0.024   0.000   0.029
   74       -0.005  -0.024   0.000  -0.029
   75       -0.000  -0.000   0.000  -0.000
   76        0.000   0.000   0.000   0.000
   77       -0.000  -0.000   0.000  -0.000
   78        0.000   0.000   0.000   0.000
--------------------------------------------------
tot          0.000  -0.000   0.001   0.001
 

 total amount of memory used by VASP MPI-rank0   103782. kBytes
=======================================================================

   base      :      30000. kBytes
   nonl-proj :       4813. kBytes
   fftplans  :       4736. kBytes
   grid      :      12960. kBytes
   one-center:        124. kBytes
   HF        :        259. kBytes
   nonlr-proj:      11065. kBytes
   wavefun   :      39825. kBytes
 
  
  
 General timing and accounting informations for this job:
 ========================================================
  
                  Total CPU time used (sec):     3282.992
                            User time (sec):     3250.167
                          System time (sec):       32.825
                         Elapsed time (sec):     3294.568
  
                   Maximum memory used (kb):      421496.
                   Average memory used (kb):           0.
  
                          Minor page faults:       123611
                          Major page faults:          130
                 Voluntary context switches:        35444
