 vasp.5.4.4.18Apr17-6-g9f103f2a35 (build Mar 06 2019 14:20:02) complex          
  
 executed on             LinuxIFC date 2020.08.22  13:34:08
 running on   96 total cores
 distrk:  each k-point on   96 cores,    1 groups
 distr:  one band on NCORES_PER_BAND=  24 cores,    4 groups


--------------------------------------------------------------------------------------------------------


 INCAR:
 POTCAR:    PAW_PBE H 15Jun2001                   
 POTCAR:    PAW_PBE Rh_pv 25Jan2005               
 POTCAR:    PAW_PBE C 08Apr2002                   
 POTCAR:    PAW_PBE S 06Sep2000                   
 POTCAR:    PAW_PBE N 08Apr2002                   
 POTCAR:    PAW_PBE O 08Apr2002                   

 ----------------------------------------------------------------------------- 
|                                                                             |
|           W    W    AA    RRRRR   N    N  II  N    N   GGGG   !!!           |
|           W    W   A  A   R    R  NN   N  II  NN   N  G    G  !!!           |
|           W    W  A    A  R    R  N N  N  II  N N  N  G       !!!           |
|           W WW W  AAAAAA  RRRRR   N  N N  II  N  N N  G  GGG   !            |
|           WW  WW  A    A  R   R   N   NN  II  N   NN  G    G                |
|           W    W  A    A  R    R  N    N  II  N    N   GGGG   !!!           |
|                                                                             |
|      For optimal performance we recommend to set                            |
|        NCORE= 4 - approx SQRT( number of cores)                             |
|      NCORE specifies how many cores store one orbital (NPAR=cpu/NCORE).     |
|      This setting can  greatly improve the performance of VASP for DFT.     |
|      The default,   NCORE=1            might be grossly inefficient         |
|      on modern multi-core architectures or massively parallel machines.     |
|      Do your own testing !!!!                                               |
|      Unfortunately you need to use the default for GW and RPA calculations. |
|      (for HF NCORE is supported but not extensively tested yet)             |
|                                                                             |
 ----------------------------------------------------------------------------- 

 POTCAR:    PAW_PBE H 15Jun2001                   
   VRHFIN =H: ultrasoft test                                                    
   LEXCH  = PE                                                                  
   EATOM  =    12.4884 eV,    0.9179 Ry                                         
                                                                                
   TITEL  = PAW_PBE H 15Jun2001                                                 
   LULTRA =        F    use ultrasoft PP ?                                      
   IUNSCR =        0    unscreen: 0-lin 1-nonlin 2-no                           
   RPACOR =    0.000    partial core radius                                     
   POMASS =    1.000; ZVAL   =    1.000    mass and valenz                      
   RCORE  =    1.100    outmost cutoff radius                                   
   RWIGS  =    0.700; RWIGS  =    0.370    wigner-seitz radius (au A)           
   ENMAX  =  250.000; ENMIN  =  200.000 eV                                      
   RCLOC  =    0.701    cutoff for local pot                                    
   LCOR   =        T    correct aug charges                                     
   LPAW   =        T    paw PP                                                  
   EAUG   =  400.000                                                            
   RMAX   =    1.123    core radius for proj-oper                               
   RAUG   =    1.200    factor for augmentation sphere                          
   RDEP   =    1.112    radius for radial grids                                 
   RDEPT  =    0.926    core radius for aug-charge                              
                                                                                
   Atomic configuration                                                         
    2 entries                                                                   
     n  l   j            E        occ.                                          
     1  0  0.50        -6.4927   1.0000                                         
     2  1  0.50        -3.4015   0.0000                                         
   Description                                                                  
     l       E           TYP  RCUT    TYP  RCUT                                 
     0     -6.4927494     23  1.100                                             
     0      6.8029130     23  1.100                                             
     1     -4.0817478     23  1.100                                             
  local pseudopotential read in
  atomic valenz-charges read in
  non local Contribution for L=           0  read in
    real space projection operators read in
  non local Contribution for L=           0  read in
    real space projection operators read in
  non local Contribution for L=           1  read in
    real space projection operators read in
    PAW grid and wavefunctions read in
 
   number of l-projection  operators is LMAX  =           3
   number of lm-projection operators is LMMAX =           5
 
 POTCAR:    PAW_PBE Rh_pv 25Jan2005               
   VRHFIN =Rh: 4p5s4d                                                           
   LEXCH  = PE                                                                  
   EATOM  =  2226.4782 eV,  163.6415 Ry                                         
                                                                                
   TITEL  = PAW_PBE Rh_pv 25Jan2005                                             
   LULTRA =        F    use ultrasoft PP ?                                      
   IUNSCR =        1    unscreen: 0-lin 1-nonlin 2-no                           
   RPACOR =    2.000    partial core radius                                     
   POMASS =  102.906; ZVAL   =   15.000    mass and valenz                      
   RCORE  =    2.400    outmost cutoff radius                                   
   RWIGS  =    2.650; RWIGS  =    1.402    wigner-seitz radius (au A)           
   ENMAX  =  247.408; ENMIN  =  185.556 eV                                      
   ICORE  =        3    local potential                                         
   LCOR   =        T    correct aug charges                                     
   LPAW   =        T    paw PP                                                  
   EAUG   =  425.654                                                            
   DEXC   =    0.000                                                            
   RMAX   =    2.461    core radius for proj-oper                               
   RAUG   =    1.300    factor for augmentation sphere                          
   RDEP   =    2.536    radius for radial grids                                 
   RDEPT  =    1.975    core radius for aug-charge                              
                                                                                
   Atomic configuration                                                         
   11 entries                                                                   
     n  l   j            E        occ.                                          
     1  0  0.50    -23034.1986   2.0000                                         
     2  0  0.50     -3339.2387   2.0000                                         
     2  1  1.50     -2992.3290   6.0000                                         
     3  0  0.50      -596.7250   2.0000                                         
     3  1  1.50      -482.7183   6.0000                                         
     3  2  2.50      -300.5356  10.0000                                         
     4  0  0.50       -82.4809   2.0000                                         
     4  1  0.50       -50.4082   6.0000                                         
     4  2  2.50        -5.9408   8.0000                                         
     5  0  0.50        -4.2999   1.0000                                         
     4  3  2.50        -1.3606   0.0000                                         
   Description                                                                  
     l       E           TYP  RCUT    TYP  RCUT                                 
     1    -50.4082326     23  2.100                                             
     1      4.0817478     23  2.100                                             
     2     -5.9408148     23  2.400                                             
     2     -7.3013974     23  2.400                                             
     0     -4.2998579     23  2.400                                             
     0     13.6058260     23  2.400                                             
     3     -4.0817478     23  2.400                                             
  local pseudopotential read in
  partial core-charges read in
  partial kinetic energy density read in
  atomic valenz-charges read in
  non local Contribution for L=           1  read in
    real space projection operators read in
  non local Contribution for L=           1  read in
    real space projection operators read in
  non local Contribution for L=           2  read in
    real space projection operators read in
  non local Contribution for L=           2  read in
    real space projection operators read in
  non local Contribution for L=           0  read in
    real space projection operators read in
  non local Contribution for L=           0  read in
    real space projection operators read in
    PAW grid and wavefunctions read in
 
   number of l-projection  operators is LMAX  =           6
   number of lm-projection operators is LMMAX =          18
 
 POTCAR:    PAW_PBE C 08Apr2002                   
   VRHFIN =C: s2p2                                                              
   LEXCH  = PE                                                                  
   EATOM  =   147.1560 eV,   10.8157 Ry                                         
                                                                                
   TITEL  = PAW_PBE C 08Apr2002                                                 
   LULTRA =        F    use ultrasoft PP ?                                      
   IUNSCR =        1    unscreen: 0-lin 1-nonlin 2-no                           
   RPACOR =    1.200    partial core radius                                     
   POMASS =   12.011; ZVAL   =    4.000    mass and valenz                      
   RCORE  =    1.500    outmost cutoff radius                                   
   RWIGS  =    1.630; RWIGS  =    0.863    wigner-seitz radius (au A)           
   ENMAX  =  400.000; ENMIN  =  300.000 eV                                      
   ICORE  =        2    local potential                                         
   LCOR   =        T    correct aug charges                                     
   LPAW   =        T    paw PP                                                  
   EAUG   =  644.873                                                            
   DEXC   =    0.000                                                            
   RMAX   =    1.529    core radius for proj-oper                               
   RAUG   =    1.300    factor for augmentation sphere                          
   RDEP   =    1.501    radius for radial grids                                 
   RDEPT  =    1.300    core radius for aug-charge                              
                                                                                
   Atomic configuration                                                         
    4 entries                                                                   
     n  l   j            E        occ.                                          
     1  0  0.50      -273.3789   2.0000                                         
     2  0  0.50       -13.7508   2.0000                                         
     2  1  0.50        -5.2854   2.0000                                         
     3  2  1.50        -5.4423   0.0000                                         
   Description                                                                  
     l       E           TYP  RCUT    TYP  RCUT                                 
     0    -13.7508458     23  1.200                                             
     0     -8.2022199     23  1.200                                             
     1     -5.2854383     23  1.500                                             
     1     34.0145650     23  1.500                                             
     2     -5.4423304      7  1.500                                             
  local pseudopotential read in
  partial core-charges read in
  partial kinetic energy density read in
  atomic valenz-charges read in
  non local Contribution for L=           0  read in
    real space projection operators read in
  non local Contribution for L=           0  read in
    real space projection operators read in
  non local Contribution for L=           1  read in
    real space projection operators read in
  non local Contribution for L=           1  read in
    real space projection operators read in
    PAW grid and wavefunctions read in
 
   number of l-projection  operators is LMAX  =           4
   number of lm-projection operators is LMMAX =           8
 
 POTCAR:    PAW_PBE S 06Sep2000                   
   VRHFIN =S : s2p4                                                             
   LEXCH  = PE                                                                  
   EATOM  =   276.8230 eV,   20.3459 Ry                                         
                                                                                
   TITEL  = PAW_PBE S 06Sep2000                                                 
   LULTRA =        F    use ultrasoft PP ?                                      
   IUNSCR =        1    unscreen: 0-lin 1-nonlin 2-no                           
   RPACOR =    1.500    partial core radius                                     
   POMASS =   32.066; ZVAL   =    6.000    mass and valenz                      
   RCORE  =    1.900    outmost cutoff radius                                   
   RWIGS  =    2.200; RWIGS  =    1.164    wigner-seitz radius (au A)           
   ENMAX  =  258.689; ENMIN  =  194.016 eV                                      
   ICORE  =        2    local potential                                         
   LCOR   =        T    correct aug charges                                     
   LPAW   =        T    paw PP                                                  
   EAUG   =  335.092                                                            
   DEXC   =    0.000                                                            
   RMAX   =    1.942    core radius for proj-oper                               
   RAUG   =    1.300    factor for augmentation sphere                          
   RDEP   =    1.954    radius for radial grids                                 
   RDEPT  =    1.744    core radius for aug-charge                              
                                                                                
   Atomic configuration                                                         
    6 entries                                                                   
     n  l   j            E        occ.                                          
     1  0  0.50     -2405.8406   2.0000                                         
     2  0  0.50      -211.7007   2.0000                                         
     2  1  1.50      -156.4958   6.0000                                         
     3  0  0.50       -17.2562   2.0000                                         
     3  1  0.50        -7.0085   4.0000                                         
     3  2  1.50        -6.8029   0.0000                                         
   Description                                                                  
     l       E           TYP  RCUT    TYP  RCUT                                 
     0    -17.2561641     23  1.900                                             
     0    -15.8743224     23  1.900                                             
     1     -7.0085400     23  1.900                                             
     1     -2.7779785     23  1.900                                             
     2     -6.8029130     23  1.900                                             
  local pseudopotential read in
  partial core-charges read in
  partial kinetic energy density read in
  atomic valenz-charges read in
  non local Contribution for L=           0  read in
    real space projection operators read in
  non local Contribution for L=           0  read in
    real space projection operators read in
  non local Contribution for L=           1  read in
    real space projection operators read in
  non local Contribution for L=           1  read in
    real space projection operators read in
    PAW grid and wavefunctions read in
 
   number of l-projection  operators is LMAX  =           4
   number of lm-projection operators is LMMAX =           8
 
 POTCAR:    PAW_PBE N 08Apr2002                   
   VRHFIN =N: s2p3                                                              
   LEXCH  = PE                                                                  
   EATOM  =   264.5486 eV,   19.4438 Ry                                         
                                                                                
   TITEL  = PAW_PBE N 08Apr2002                                                 
   LULTRA =        F    use ultrasoft PP ?                                      
   IUNSCR =        1    unscreen: 0-lin 1-nonlin 2-no                           
   RPACOR =    1.200    partial core radius                                     
   POMASS =   14.001; ZVAL   =    5.000    mass and valenz                      
   RCORE  =    1.500    outmost cutoff radius                                   
   RWIGS  =    1.400; RWIGS  =    0.741    wigner-seitz radius (au A)           
   ENMAX  =  400.000; ENMIN  =  300.000 eV                                      
   ICORE  =        2    local potential                                         
   LCOR   =        T    correct aug charges                                     
   LPAW   =        T    paw PP                                                  
   EAUG   =  627.112                                                            
   DEXC   =    0.000                                                            
   RMAX   =    1.529    core radius for proj-oper                               
   RAUG   =    1.300    factor for augmentation sphere                          
   RDEP   =    1.514    radius for radial grids                                 
   RDEPT  =    1.338    core radius for aug-charge                              
                                                                                
   Atomic configuration                                                         
    4 entries                                                                   
     n  l   j            E        occ.                                          
     1  0  0.50      -384.7179   2.0000                                         
     2  0  0.50       -18.5828   2.0000                                         
     2  1  0.50        -7.0898   3.0000                                         
     3  2  1.50        -6.8029   0.0000                                         
   Description                                                                  
     l       E           TYP  RCUT    TYP  RCUT                                 
     0    -18.5828119     23  1.200                                             
     0    -13.5018863     23  1.200                                             
     1     -7.0897853     23  1.500                                             
     1      9.5240782     23  1.500                                             
     2     -6.8029130      7  1.500                                             
  local pseudopotential read in
  partial core-charges read in
  partial kinetic energy density read in
  atomic valenz-charges read in
  non local Contribution for L=           0  read in
    real space projection operators read in
  non local Contribution for L=           0  read in
    real space projection operators read in
  non local Contribution for L=           1  read in
    real space projection operators read in
  non local Contribution for L=           1  read in
    real space projection operators read in
    PAW grid and wavefunctions read in
 
   number of l-projection  operators is LMAX  =           4
   number of lm-projection operators is LMMAX =           8
 
 POTCAR:    PAW_PBE O 08Apr2002                   
   VRHFIN =O: s2p4                                                              
   LEXCH  = PE                                                                  
   EATOM  =   432.3788 eV,   31.7789 Ry                                         
                                                                                
   TITEL  = PAW_PBE O 08Apr2002                                                 
   LULTRA =        F    use ultrasoft PP ?                                      
   IUNSCR =        1    unscreen: 0-lin 1-nonlin 2-no                           
   RPACOR =    1.200    partial core radius                                     
   POMASS =   16.000; ZVAL   =    6.000    mass and valenz                      
   RCORE  =    1.520    outmost cutoff radius                                   
   RWIGS  =    1.550; RWIGS  =    0.820    wigner-seitz radius (au A)           
   ENMAX  =  400.000; ENMIN  =  300.000 eV                                      
   ICORE  =        2    local potential                                         
   LCOR   =        T    correct aug charges                                     
   LPAW   =        T    paw PP                                                  
   EAUG   =  605.392                                                            
   DEXC   =    0.000                                                            
   RMAX   =    1.553    core radius for proj-oper                               
   RAUG   =    1.300    factor for augmentation sphere                          
   RDEP   =    1.550    radius for radial grids                                 
   RDEPT  =    1.329    core radius for aug-charge                              
                                                                                
   Atomic configuration                                                         
    4 entries                                                                   
     n  l   j            E        occ.                                          
     1  0  0.50      -514.6923   2.0000                                         
     2  0  0.50       -23.9615   2.0000                                         
     2  1  0.50        -9.0305   4.0000                                         
     3  2  1.50        -9.5241   0.0000                                         
   Description                                                                  
     l       E           TYP  RCUT    TYP  RCUT                                 
     0    -23.9615318     23  1.200                                             
     0     -9.5240782     23  1.200                                             
     1     -9.0304911     23  1.520                                             
     1      8.1634956     23  1.520                                             
     2     -9.5240782      7  1.500                                             
  local pseudopotential read in
  partial core-charges read in
  partial kinetic energy density read in
  kinetic energy density of atom read in
  atomic valenz-charges read in
  non local Contribution for L=           0  read in
    real space projection operators read in
  non local Contribution for L=           0  read in
    real space projection operators read in
  non local Contribution for L=           1  read in
    real space projection operators read in
  non local Contribution for L=           1  read in
    real space projection operators read in
    PAW grid and wavefunctions read in
 
   number of l-projection  operators is LMAX  =           4
   number of lm-projection operators is LMMAX =           8
 

 ----------------------------------------------------------------------------- 
|                                                                             |
|  ADVICE TO THIS USER RUNNING 'VASP/VAMP'   (HEAR YOUR MASTER'S VOICE ...):  |
|                                                                             |
|      You have a (more or less) 'large supercell' and for larger cells       |
|      it might be more efficient to use real space projection opertators     |
|      So try LREAL= Auto  in the INCAR   file.                               |
|      Mind:          For very  accurate calculation you might also keep the  |
|      reciprocal projection scheme          (i.e. LREAL=.FALSE.)             |
|                                                                             |
 ----------------------------------------------------------------------------- 

  PAW_PBE H 15Jun2001                   :
 energy of atom  1       EATOM=  -12.4884
 kinetic energy error for atom=    0.0014 (will be added to EATOM!!)
  PAW_PBE Rh_pv 25Jan2005               :
 energy of atom  2       EATOM=-2226.4782
 kinetic energy error for atom=    0.0084 (will be added to EATOM!!)
  PAW_PBE C 08Apr2002                   :
 energy of atom  3       EATOM= -147.1560
 kinetic energy error for atom=    0.0071 (will be added to EATOM!!)
  PAW_PBE S 06Sep2000                   :
 energy of atom  4       EATOM= -276.8230
 kinetic energy error for atom=    0.0016 (will be added to EATOM!!)
  PAW_PBE N 08Apr2002                   :
 energy of atom  5       EATOM= -264.5486
 kinetic energy error for atom=    0.0125 (will be added to EATOM!!)
  PAW_PBE O 08Apr2002                   :
 energy of atom  6       EATOM= -432.3788
 kinetic energy error for atom=    0.0208 (will be added to EATOM!!)
 
 
 POSCAR:  H Rh  C  S  N  O                       
  positions in direct lattice
  velocities in cartesian coordinates
 exchange correlation table for  LEXCH =        8
   RHO(1)=    0.500       N(1)  =     2000
   RHO(2)=  100.500       N(2)  =     4000
 


--------------------------------------------------------------------------------------------------------


 ion  position               nearest neighbor table
   1  0.503  0.510  0.884-  39 1.09
   2  0.499  0.485  0.117-  40 1.09
   3  0.464  0.636  0.893-  39 1.09
   4  0.540  0.359  0.106-  40 1.09
   5  0.371  0.567  0.788-  39 1.09
   6  0.635  0.428  0.211-  40 1.09
   7  0.862  0.827  0.969-  43 1.09
   8  0.131  0.171  0.028-  44 1.09
   9  0.673  0.771  0.990-  43 1.09
  10  0.320  0.225  0.004-  44 1.09
  11  0.716  0.773  0.871-  43 1.09
  12  0.280  0.224  0.124-  44 1.09
  13  0.462  0.137  0.684-  47 1.09
  14  0.534  0.857  0.325-  48 1.09
  15  0.469  0.201  0.579-  47 1.09
  16  0.523  0.805  0.436-  48 1.09
  17  0.566  0.084  0.592-  47 1.09
  18  0.429  0.922  0.410-  48 1.09
  19  0.081  0.124  0.212-  51 1.09
  20  0.895  0.887  0.790-  52 1.09
  21  0.892  0.057  0.181-  51 1.09
  22  0.097  0.940  0.821-  52 1.09
  23  0.090  0.995  0.188-  51 1.09
  24  0.913  0.015  0.817-  52 1.09
  25  0.432  0.477  0.321-  61 1.08
  26  0.549  0.530  0.673-  62 1.08
  27  0.372  0.646  0.574-  63 1.08
  28  0.609  0.360  0.419-  64 1.08
  29  0.003  0.653  0.760-  65 1.08
  30  0.061  0.346  0.242-  66 1.08
  31  0.847  0.753  0.619-  67 1.08
  32  0.216  0.242  0.381-  68 1.08
  33  0.075  0.532  0.072-  79 2.03  83 2.03  82 2.04  86 2.05  75 2.15  34 2.40
  34  0.922  0.466  0.924-  84 2.03  80 2.03  85 2.04  81 2.05  76 2.17  33 2.40
  35  0.063  0.925  0.495-  90 2.03  87 2.03  91 2.03  94 2.04  77 2.14  36 2.39
  36  0.930  0.080  0.508-  93 2.03  92 2.03  88 2.03  89 2.04  78 2.15  35 2.39
  37  0.256  0.544  0.913-  79 1.26  81 1.27  39 1.50
  38  0.744  0.453  0.085-  80 1.26  82 1.27  40 1.50
  39  0.407  0.566  0.866-   5 1.09   3 1.09   1 1.09  37 1.50
  40  0.596  0.429  0.133-   6 1.09   4 1.09   2 1.09  38 1.50
  41  0.861  0.670  0.962-  83 1.26  85 1.27  43 1.50
  42  0.135  0.328  0.033-  84 1.26  86 1.27  44 1.50
  43  0.773  0.766  0.946-  11 1.09   7 1.09   9 1.09  41 1.50
  44  0.221  0.231  0.050-  12 1.09   8 1.09  10 1.09  42 1.50
  45  0.293  0.083  0.563-  87 1.26  89 1.27  47 1.49
  46  0.701  0.921  0.441-  88 1.26  90 1.27  48 1.49
  47  0.459  0.128  0.606-  17 1.09  15 1.09  13 1.09  45 1.49
  48  0.535  0.874  0.401-  18 1.09  16 1.09  14 1.09  46 1.49
  49  0.017  0.036  0.323-  91 1.26  93 1.27  51 1.50
  50  0.975  0.970  0.680-  92 1.26  94 1.27  52 1.50
  51  0.022  0.053  0.219-  23 1.09  19 1.09  21 1.09  49 1.50
  52  0.969  0.953  0.784-  24 1.09  20 1.09  22 1.09  50 1.50
  53  0.239  0.619  0.285-  75 1.16  55 1.40
  54  0.746  0.387  0.709-  76 1.16  56 1.40
  55  0.284  0.638  0.383-  57 1.39  53 1.40  59 1.42
  56  0.697  0.369  0.611-  58 1.39  54 1.40  60 1.42
  57  0.221  0.721  0.426-  77 1.16  55 1.39
  58  0.763  0.287  0.569-  78 1.16  56 1.39
  59  0.389  0.571  0.440-  63 1.41  61 1.41  55 1.42
  60  0.592  0.436  0.554-  64 1.41  62 1.41  56 1.42
  61  0.458  0.488  0.398-  25 1.08  64 1.37  59 1.41
  62  0.523  0.518  0.596-  26 1.08  63 1.37  60 1.41
  63  0.425  0.584  0.541-  27 1.08  62 1.37  59 1.41
  64  0.556  0.423  0.453-  28 1.08  61 1.37  60 1.41
  65  0.984  0.630  0.686-  29 1.08  67 1.34  71 1.71
  66  0.066  0.362  0.318-  30 1.08  68 1.34  72 1.71
  67  0.899  0.681  0.613-  31 1.08  65 1.34  73 1.71
  68  0.149  0.309  0.389-  32 1.08  66 1.34  74 1.70
  69  0.993  0.525  0.537-  70 1.39  73 1.71  71 1.71
  70  0.030  0.454  0.471-  69 1.39  74 1.71  72 1.71
  71  0.064  0.519  0.657-  65 1.71  69 1.71
  72  0.964  0.464  0.350-  66 1.71  70 1.71
  73  0.878  0.627  0.501-  67 1.71  69 1.71
  74  0.146  0.352  0.504-  68 1.70  70 1.71
  75  0.205  0.595  0.205-  53 1.16  33 2.15
  76  0.787  0.407  0.789-  54 1.16  34 2.17
  77  0.176  0.788  0.467-  57 1.16  35 2.14
  78  0.815  0.219  0.532-  58 1.16  36 2.15
  79  0.269  0.565  0.002-  37 1.26  33 2.03
  80  0.729  0.434  0.996-  38 1.26  34 2.03
  81  0.127  0.505  0.862-  37 1.27  34 2.05
  82  0.874  0.492  0.136-  38 1.27  33 2.04
  83  0.964  0.663  0.039-  41 1.26  33 2.03
  84  0.032  0.335  0.957-  42 1.26  34 2.03
  85  0.823  0.603  0.899-  41 1.27  34 2.04
  86  0.173  0.395  0.097-  42 1.27  33 2.05
  87  0.290  0.992  0.543-  45 1.26  35 2.03
  88  0.704  0.012  0.461-  46 1.26  36 2.03
  89  0.166  0.139  0.551-  45 1.27  36 2.04
  90  0.829  0.865  0.452-  46 1.27  35 2.03
  91  0.078  0.957  0.357-  49 1.26  35 2.03
  92  0.916  0.050  0.647-  50 1.26  36 2.03
  93  0.952  0.103  0.369-  49 1.27  36 2.03
  94  0.039  0.903  0.634-  50 1.27  35 2.04
 

IMPORTANT INFORMATION: All symmetrisations will be switched off!
NOSYMM: (Re-)initialisation of all symmetry stuff for point group C_1.

 
 
 KPOINTS: KPOINTS created by Atomic Simulation Env

Automatic generation of k-mesh.
Space group operators:
 irot       det(A)        alpha          n_x          n_y          n_z        tau_x        tau_y        tau_z
    1     1.000000     0.000001     1.000000     0.000000     0.000000     0.000000     0.000000     0.000000
 
 Subroutine IBZKPT returns following result:
 ===========================================
 
 Found      2 irreducible k-points:
 
 Following reciprocal coordinates:
            Coordinates               Weight
  0.000000  0.000000  0.000000      1.000000
  0.333333  0.000000  0.000000      2.000000
 
 Following cartesian coordinates:
            Coordinates               Weight
  0.000000  0.000000  0.000000      1.000000
  0.042312  0.000325  0.000203      2.000000
 
 
 Subroutine IBZKPT_HF returns following result:
 ==============================================
 
 Found      3 k-points in 1st BZ
 the following      3 k-points will be used (e.g. in the exchange kernel)
 Following reciprocal coordinates:   # in IRBZ
  0.000000  0.000000  0.000000    0.33333333   1 t-inv F
  0.333333  0.000000  0.000000    0.33333333   2 t-inv F
 -0.333333 -0.000000 -0.000000    0.33333333   2 t-inv T


--------------------------------------------------------------------------------------------------------




 Dimension of arrays:
   k-points           NKPTS =      2   k-points in BZ     NKDIM =      3   number of bands    NBANDS=    232
   number of dos      NEDOS =   3000   number of ions     NIONS =     94
   non local maximal  LDIM  =      6   non local SUM 2l+1 LMDIM =     18
   total plane-waves  NPLWV = 699840
   max r-space proj   IRMAX =      1   max aug-charges    IRDMAX=  21817
   dimension x,y,z NGX =    60 NGY =  108 NGZ =  108
   dimension x,y,z NGXF=   120 NGYF=  216 NGZF=  216
   support grid    NGXF=   120 NGYF=  216 NGZF=  216
   ions per type =              32   4  34   4   4  16
   NGX,Y,Z   is equivalent  to a cutoff of  12.50, 13.15, 12.71 a.u.
   NGXF,Y,Z  is equivalent  to a cutoff of  25.01, 26.30, 25.42 a.u.

 SYSTEM =  unknown system                          
 POSCAR =   H Rh  C  S  N  O                       

 Startparameter for this run:
   NWRITE =      2    write-flag & timer
   PREC   = accura    normal or accurate (medium, high low for compatibility)
   ISTART =      1    job   : 0-new  1-cont  2-samecut
   ICHARG =      1    charge: 1-file 2-atom 10-const
   ISPIN  =      2    spin polarized calculation?
   LNONCOLLINEAR =      F non collinear calculations
   LSORBIT =      F    spin-orbit coupling
   INIWAV =      1    electr: 0-lowe 1-rand  2-diag
   LASPH  =      F    aspherical Exc in radial PAW
   METAGGA=      F    non-selfconsistent MetaGGA calc.

 Electronic Relaxation 1
   ENCUT  =  520.0 eV  38.22 Ry    6.18 a.u.  14.83 25.38 26.26*2*pi/ulx,y,z
   ENINI  =  520.0     initial cutoff
   ENAUG  =  644.9 eV  augmentation charge cutoff
   NELM   =    150;   NELMIN=  3; NELMDL=  0     # of ELM steps 
   EDIFF  = 0.1E-04   stopping-criterion for ELM
   LREAL  =      F    real-space projection
   NLSPLINE    = F    spline interpolate recip. space projectors
   LCOMPAT=      F    compatible to vasp.4.4
   GGA_COMPAT  = T    GGA compatible to vasp.4.4-vasp.4.6
   LMAXPAW     = -100 max onsite density
   LMAXMIX     =    2 max onsite mixed and CHGCAR
   VOSKOWN=      0    Vosko Wilk Nusair interpolation
   ROPT   =    0.00000   0.00000   0.00000   0.00000
   ROPT   =    0.00000   0.00000
 Ionic relaxation
   EDIFFG = 0.1E-03   stopping-criterion for IOM
   NSW    =      0    number of steps for IOM
   NBLOCK =      1;   KBLOCK =      1    inner block; outer block 
   IBRION =     -1    ionic relax: 0-MD 1-quasi-New 2-CG
   NFREE  =      0    steps in history (QN), initial steepest desc. (CG)
   ISIF   =      0    stress and relaxation
   IWAVPR =     10    prediction:  0-non 1-charg 2-wave 3-comb
   ISYM   =      0    0-nonsym 1-usesym 2-fastsym
   LCORR  =      T    Harris-Foulkes like correction to forces

   POTIM  = 0.5000    time-step for ionic-motion
   TEIN   =    0.0    initial temperature
   TEBEG  =    0.0;   TEEND  =   0.0 temperature during run
   SMASS  =  -3.00    Nose mass-parameter (am)
   estimated Nose-frequenzy (Omega)   =  0.10E-29 period in steps =****** mass=  -0.145E-26a.u.
   SCALEE = 1.0000    scale energy and forces
   NPACO  =    256;   APACO  = 16.0  distance and # of slots for P.C.
   PSTRESS=    0.0 pullay stress

  Mass of Ions in am
   POMASS =   1.00102.91 12.01 32.07 14.00 16.00
  Ionic Valenz
   ZVAL   =   1.00 15.00  4.00  6.00  5.00  6.00
  Atomic Wigner-Seitz radii
   RWIGS  =  -1.00 -1.00 -1.00 -1.00 -1.00 -1.00
  virtual crystal weights 
   VCA    =   1.00  1.00  1.00  1.00  1.00  1.00
   NELECT =     368.0000    total number of electrons
   NUPDOWN=      -1.0000    fix difference up-down

 DOS related values:
   EMIN   =  10.00;   EMAX   =-10.00  energy-range for DOS
   EFERMI =   0.00
   ISMEAR =     0;   SIGMA  =   0.01  broadening in eV -4-tet -1-fermi 0-gaus

 Electronic relaxation 2 (details)
   IALGO  =     58    algorithm
   LDIAG  =      T    sub-space diagonalisation (order eigenvalues)
   LSUBROT=      F    optimize rotation matrix (better conditioning)
   TURBO    =      0    0=normal 1=particle mesh
   IRESTART =      0    0=no restart 2=restart with 2 vectors
   NREBOOT  =      0    no. of reboots
   NMIN     =      0    reboot dimension
   EREF     =   0.00    reference energy to select bands
   IMIX   =      4    mixing-type and parameters
     AMIX     =   0.40;   BMIX     =  1.00
     AMIX_MAG =   1.60;   BMIX_MAG =  1.00
     AMIN     =   0.10
     WC   =   100.;   INIMIX=   1;  MIXPRE=   1;  MAXMIX= -45

 Intra band minimization:
   WEIMIN = 0.0000     energy-eigenvalue tresh-hold
   EBREAK =  0.11E-07  absolut break condition
   DEPER  =   0.30     relativ break condition  

   TIME   =   0.40     timestep for ELM

  volume/ion in A,a.u.               =      16.15       109.01
  Fermi-wavevector in a.u.,A,eV,Ry     =   1.020696  1.928835 14.174817  1.041820
  Thomas-Fermi vector in A             =   2.154279
 
 Write flags
   LWAVE        =      T    write WAVECAR
   LDOWNSAMPLE  =      F    k-point downsampling of WAVECAR
   LCHARG       =      T    write CHGCAR
   LVTOT        =      F    write LOCPOT, total local potential
   LVHAR        =      F    write LOCPOT, Hartree potential only
   LELF         =      F    write electronic localiz. function (ELF)
   LORBIT       =     11    0 simple, 1 ext, 2 COOP (PROOUT), +10 PAW based schemes


 Dipole corrections
   LMONO  =      F    monopole corrections only (constant potential shift)
   LDIPOL =      F    correct potential (dipole corrections)
   IDIPOL =      0    1-x, 2-y, 3-z, 4-all directions 
   EPSILON=  1.0000000 bulk dielectric constant

 Exchange correlation treatment:
   GGA     =    PE    GGA type
   LEXCH   =     8    internal setting for exchange type
   VOSKOWN=      0    Vosko Wilk Nusair interpolation
   EXXOEP  =     0    0=HF, 1=EXX-LHF (local Hartree Fock) 2=EXX OEP
   LHFCALC =     T    Hartree Fock is set to
   LSYMGRAD=     F    symmetrize gradient (conserves proper symmetry)
   PRECFOCK=normal    Normal, Fast or Accurate (Low or Medium for compatibility)
   LRHFCALC=     F    long range Hartree Fock
   LRSCOR  =     F    long range correlation only (use DFT for short range part)
   LTHOMAS =     F    Thomas Fermi screening in HF
   LMODELHF=     F    short range full HF, long range fraction AEXX
   ENCUT4O =  -1.0   cutoff for four orbital integrals eV
   LMAXFOCK=     4    L truncation for augmentation on plane wave grid
   LMAXFOCKAE=  -1    L truncation for all-electron charge restoration on plane wave grid
   NMAXFOCKAE=   1    number of basis functions for all-electron charge restoration
   LFOCKAEDFT=     F  apply the AE augmentation even for DFT
   NKREDX  =     1    reduce k-point grid by
   NKREDY  =     1    reduce k-point grid by
   NKREDZ  =     1    reduce k-point grid by
   SHIFTRED=     F    shift reduced grid of Gamma
   HFKIDENT=     F    idential grid for each k-point
   ODDONLY =     F    use only odd q-grid points
   EVENONLY=     F    use only even q-grid points
   HFALPHA =   -1.0000 decay constant for conv. correction
   MCALPHA =    0.0000 extent of test-charge in conv. correction in multipole expansion
   AEXX    =    0.2500 exact exchange contribution
   HFSCREEN=    0.2000 screening length (either q_TF or 0.3 A-1)
   HFSCREENC=   0.2000 screening length for correlation (either q_TF or 0.3 A-1)
   HFRCUT  =    0.0000 spherical cutoff for potential kernel
   ALDAX   =    0.7500 LDA exchange part
   AGGAX   =    0.7500 GGA exchange part
   ALDAC   =    1.0000 LDA correlation
   AGGAC   =    1.0000 GGA correlation
   ENCUTFOCK=  -1.0 apply spherical cutoff to Coloumb kernel
   NBANDSGWLOW=     1    first orbital included in HF term
   NBLOCK_FOCK=    64    blocking factor in FOCK_ACC
 Linear response parameters
   LEPSILON=     F    determine dielectric tensor
   LRPA    =     F    only Hartree local field effects (RPA)
   LNABLA  =     F    use nabla operator in PAW spheres
   LVEL    =     F    velocity operator in full k-point grid
   LINTERFAST=   F  fast interpolation
   KINTER  =     0    interpolate to denser k-point grid
   CSHIFT  =0.1000    complex shift for real part using Kramers Kronig
   OMEGAMAX=  -1.0    maximum frequency
   DEG_THRESHOLD= 0.2000000E-02 threshold for treating states as degnerate
   RTIME   =   -0.100 relaxation time in fs
  (WPLASMAI=    0.000 imaginary part of plasma frequency in eV, 0.658/RTIME)
   DFIELD  = 0.0000000 0.0000000 0.0000000 field for delta impulse in time
 
 Orbital magnetization related:
   ORBITALMAG=     F  switch on orbital magnetization
   LCHIMAG   =     F  perturbation theory with respect to B field
   DQ        =  0.001000  dq finite difference perturbation B field
   LLRAUG    =     F  two centre corrections for induced B field



--------------------------------------------------------------------------------------------------------


 Static calculation
 charge density and potential will be updated during run
 spin polarized calculation
 Conjugate gradient for all bands (Freysoldt, et al. PRB 79, 241103 (2009))
 preconditioned conjugated gradient                                        
 perform sub-space diagonalisation
    before iterative eigenvector-optimisation
 modified Broyden-mixing scheme, WC =      100.0
 initial mixing is a Kerker type mixing with AMIX =  0.4000 and BMIX =      1.0000
 Hartree-type preconditioning will be used
 using additional bands           48
 reciprocal scheme for non local part
 use partial core corrections
 no Harris-corrections to forces 
 use gradient corrections 
 use of overlap-Matrix (Vanderbilt PP)
 Gauss-broadening in eV      SIGMA  =   0.01


--------------------------------------------------------------------------------------------------------


  energy-cutoff  :      520.00
  volume of cell :     1518.39
      direct lattice vectors                 reciprocal lattice vectors
     7.883875588  0.007588404 -1.221754993     0.126934719  0.000976215  0.000609728
    -0.103181423 13.646041553 -0.367651007    -0.000061648  0.073282404  0.000057353
    -0.067760246 -0.011111144 14.124283499     0.010978289  0.001991963  0.070854286

  length of vectors
     7.977984528 13.651383217 14.124450406     0.126939937  0.073282452  0.071727405


 
 old parameters found on file WAVECAR:
  energy-cutoff  :      520.00
  volume of cell :     1518.39
      direct lattice vectors                 reciprocal lattice vectors
     7.883875588  0.007588404 -1.221754993     0.126934719  0.000976215  0.000609728
    -0.103181423 13.646041553 -0.367651007    -0.000061648  0.073282404  0.000057353
    -0.067760246 -0.011111144 14.124283499     0.010978289  0.001991963  0.070854286

  length of vectors

 
 k-points in units of 2pi/SCALE and weight: KPOINTS created by Atomic Simulation Env
   0.00000000  0.00000000  0.00000000       0.333
   0.04231157  0.00032541  0.00020324       0.667
 
 k-points in reciprocal lattice and weights: KPOINTS created by Atomic Simulation Env
   0.00000000  0.00000000  0.00000000       0.333
   0.33333333  0.00000000  0.00000000       0.667
 
 position of ions in fractional coordinates (direct lattice) 
   0.50250991  0.50991484  0.88428666
   0.49865903  0.48465524  0.11661156
   0.46351012  0.63587822  0.89310268
   0.54014173  0.35905866  0.10596889
   0.37142878  0.56687787  0.78828583
   0.63462858  0.42752501  0.21075867
   0.86150926  0.82652939  0.96872844
   0.13082090  0.17128264  0.02777715
   0.67262662  0.77071172  0.99040718
   0.31989736  0.22537438  0.00424270
   0.71602487  0.77273603  0.87118237
   0.27960247  0.22437165  0.12408828
   0.46249197  0.13680740  0.68381641
   0.53396175  0.85724057  0.32495178
   0.46930051  0.20133556  0.57876982
   0.52259736  0.80522508  0.43600022
   0.56555486  0.08373819  0.59202980
   0.42878740  0.92152008  0.41005079
   0.08146016  0.12419266  0.21188902
   0.89475800  0.88664082  0.79036045
   0.89186005  0.05682709  0.18130552
   0.09743692  0.94011727  0.82116593
   0.08999316  0.99519938  0.18788614
   0.91329991  0.01499780  0.81710509
   0.43202643  0.47709681  0.32059256
   0.54912708  0.52971796  0.67294149
   0.37186066  0.64628373  0.57448506
   0.60874952  0.36040358  0.41896878
   0.00335848  0.65278170  0.76039216
   0.06083712  0.34638102  0.24204107
   0.84718132  0.75316204  0.61918317
   0.21628635  0.24180798  0.38068678
   0.07493097  0.53185995  0.07195228
   0.92202736  0.46648747  0.92402601
   0.06320457  0.92489667  0.49514638
   0.93008433  0.08046837  0.50816661
   0.25624287  0.54410364  0.91304196
   0.74408654  0.45296408  0.08482463
   0.40658233  0.56613380  0.86584428
   0.59617592  0.42898516  0.13341668
   0.86106171  0.66992902  0.96228060
   0.13468097  0.32781455  0.03337072
   0.77296780  0.76642326  0.94600105
   0.22105729  0.23080387  0.04956401
   0.29328550  0.08268485  0.56337209
   0.70106115  0.92116323  0.44148575
   0.45936007  0.12828441  0.60640781
   0.53476483  0.87435506  0.40102973
   0.01726470  0.03603199  0.32319136
   0.97498555  0.97002369  0.68031809
   0.02189930  0.05342823  0.21923423
   0.96893440  0.95271513  0.78414760
   0.23852352  0.61934276  0.28463208
   0.74568422  0.38686263  0.70901047
   0.28383040  0.63798650  0.38296859
   0.69676400  0.36882637  0.61068649
   0.22149977  0.72070409  0.42562453
   0.76276878  0.28658292  0.56915573
   0.38869142  0.57071062  0.44002023
   0.59158056  0.43577655  0.55360016
   0.45807238  0.48834685  0.39773781
   0.52255009  0.51829231  0.59582332
   0.42455376  0.58373391  0.54075525
   0.55621722  0.42295101  0.45279760
   0.98360530  0.63012879  0.68561164
   0.06609271  0.36170087  0.31796890
   0.89938651  0.68074393  0.61310690
   0.14895937  0.30913703  0.38949153
   0.99338402  0.52538020  0.53653495
   0.03025613  0.45366267  0.47096803
   0.06364237  0.51917453  0.65694800
   0.96406085  0.46401375  0.35047640
   0.87839498  0.62702589  0.50138087
   0.14599765  0.35177715  0.50379725
   0.20502601  0.59545862  0.20453514
   0.78722735  0.40728738  0.78946042
   0.17625264  0.78763324  0.46680549
   0.81511022  0.21911467  0.53195358
   0.26934561  0.56480945  0.00159182
   0.72888473  0.43353405  0.99583069
   0.12657600  0.50540232  0.86186343
   0.87368413  0.49199173  0.13558303
   0.96446397  0.66271504  0.03906533
   0.03167317  0.33537133  0.95655651
   0.82333437  0.60278154  0.89871485
   0.17323928  0.39491827  0.09704692
   0.28961646  0.99199725  0.54312907
   0.70419312  0.01206962  0.46115501
   0.16556571  0.13891865  0.55128428
   0.82930918  0.86536037  0.45244500
   0.07779235  0.95664060  0.35688499
   0.91643526  0.04979816  0.64668731
   0.95188505  0.10282626  0.36909811
   0.03893169  0.90255662  0.63434143
 
 position of ions in cartesian coordinates  (Angst):
   3.84919242  6.95230696 11.68850074
   3.87345673  6.61611388  0.85963160
   3.52812848  8.67081447 11.81435839
   4.21418152  4.90265083  0.70480557
   2.81639262  7.72969883 10.47176437
   4.94493905  5.83649813  2.04427455
   6.64110810 11.27462816 12.32616752
   1.01182031  2.33801416  0.16952900
   5.15627124 10.51126371 12.88365394
   2.49848904  3.07784846 -0.41377022
   5.50628743 10.54054169 11.14592263
   2.17279181  3.06252783  1.32856187
   3.58577760  1.86279110  9.04306762
   4.09921789 11.69838181  3.62217532
   3.63991519  2.74456392  7.52731757
   4.00746479 10.98725607  5.22366295
   4.41000785  1.14040834  7.64024082
   3.25763759 12.57379894  4.92900271
   0.61504973  1.69300201  2.84759672
   6.90912090 12.09714551  9.74412562
   7.01316489  0.78021807  1.45028362
   0.61553550 12.82049458 11.13370123
   0.59407760 13.57912743  2.17792142
   7.14342813  0.20251213 10.41968124
   3.33509163  6.51019917  3.82490470
   4.22899383  7.22524313  8.63916631
   2.82609148  8.81565323  7.42226035
   4.73372907  4.91804638  5.04138838
  -0.09240145  8.89946281 10.49589536
   0.42749146  4.72450213  3.21698136
   6.55940379 10.27722945  7.43356982
   1.65442916  3.29713309  5.02377811
   0.53099288  7.25755218  0.72918832
   7.15840392  6.36243717 11.75320922
   0.36931361 12.61615641  6.57632813
   7.28993279  1.09948626  6.01156977
   1.90217761  7.41666047 12.38295728
   5.81380048  6.18587063  0.12246303
   3.08836017  7.71895017 11.52454639
   4.64687311  5.85699100  0.99831727
   6.65417482  9.13772130 12.29321743
   1.02572241  4.47402225  0.18626900
   5.95080009 10.45399808 12.13543346
   1.71561506  3.15068594  0.34512300
   2.26552060  1.12428672  7.56850487
   5.40211675 12.57064617  5.04047830
   3.56721076  1.74732234  7.95668641
   4.09862828 11.93108758  4.68944854
   0.11049538  0.48823397  4.53050590
   7.54047782 13.23682310  8.06118193
   0.15228319  0.72681405  3.05012797
   7.48752169 12.99943008  9.54145588
   1.79729839  8.45022442  3.50110483
   5.79092188  5.27692418  8.96099099
   2.14590513  8.70388895  4.82782928
   5.41376439  5.03152188  7.63863489
   1.64307292  9.83170960  5.47605544
   5.94543800  3.91018671  7.00163788
   2.97569219  7.78600131  5.53026247
   4.58147141  5.94496292  6.93622537
   3.53404651  6.66305818  4.87856815
   4.02586866  7.06998342  7.58659863
   3.25025680  7.96287041  6.90446946
   4.31082502  5.77079682  5.56038219
   7.64314698  8.59860973  8.25038103
   0.46220023  4.93275367  4.27735407
   6.97886695  9.28947253  7.31058953
   1.11608786  4.21529948  5.20564234
   7.74115080  7.17093675  6.17134327
   0.15981310  6.18569628  6.44833082
   0.40366440  7.07786073  9.01028940
   7.52890986  6.33537234  3.60178681
   6.82648563  8.55751601  5.77793542
   1.08059305  4.79587579  6.80807064
   1.54109991  8.12493632  2.41949976
   6.11088400  5.55506255 10.03902419
   1.27665390 10.74422670  6.08838144
   6.36757373  2.99032267  6.43704039
   2.06510155  7.70943951 -0.51424378
   5.63422617  5.91048997 13.01548724
   0.88736122  6.88812526 11.83274689
   6.82806544  6.71886295  0.66670399
   7.53268700  9.05032159 -0.87021671
   0.15028671  4.56610298 13.34867892
   6.36797275  8.22184400 11.46617715
   1.31847280  5.38930748  1.01387018
   2.14414186 13.53299859  6.95275981
   5.51927757  0.16492222  5.64869526
   1.25361049  1.89082068  7.53314113
   6.41822346 11.81000949  5.05909827
   0.49041506 13.05098227  4.59399177
   7.17610362  0.67931665  7.99602720
   7.46892337  1.40629365  4.01247180
   0.17082238 12.30957224  8.58022730
 


--------------------------------------------------------------------------------------------------------


 k-point  1 :   0.0000 0.0000 0.0000  plane waves:   40891
 k-point  2 :   0.3333 0.0000 0.0000  plane waves:   40883

 maximum and minimum number of plane-waves per node :      1713     1693

 maximum number of plane-waves:     40891
 maximum index in each direction: 
   IXMAX=   14   IYMAX=   25   IZMAX=   26
   IXMIN=  -15   IYMIN=  -25   IZMIN=  -26


 parallel 3D FFT for wavefunctions:
    minimum data exchange during FFTs selected (reduces bandwidth)
 parallel 3D FFT for charge:
    minimum data exchange during FFTs selected (reduces bandwidth)


 FFT grid for exact exchange (Hartree Fock) 
  NGX = 48; NGY = 80; NGZ = 80

 
 Radii for the augmentation spheres in the non-local exchange
 for species   1 augmentation radius   0.650 (default was   0.520)
       energy cutoff for augmentation   2080.0
 for species   2 augmentation radius   1.384 (default was   1.107)
       energy cutoff for augmentation   2080.0
 for species   3 augmentation radius   0.874 (default was   0.699)
       energy cutoff for augmentation   2080.0
 for species   4 augmentation radius   1.212 (default was   0.970)
       energy cutoff for augmentation   2080.0
 for species   5 augmentation radius   0.886 (default was   0.709)
       energy cutoff for augmentation   2080.0
 for species   6 augmentation radius   0.902 (default was   0.722)
       energy cutoff for augmentation   2080.0

 real space projection operators:
  total allocation   :       4923.30 KBytes
  max/ min on nodes  :        286.23        134.98

 Maximum index for augmentation-charges in exchange          175
  SETUP_FOCK is finished

 total amount of memory used by VASP MPI-rank0    77482. kBytes
=======================================================================

   base      :      30000. kBytes
   nonl-proj :       5571. kBytes
   fftplans  :       4664. kBytes
   grid      :      13343. kBytes
   one-center:        124. kBytes
   HF        :         69. kBytes
   nonlr-proj:       4070. kBytes
   wavefun   :      19641. kBytes
 
     INWAV:  cpu time    1.5223: real time    1.5277
 Broyden mixing: mesh for mixing (old mesh)
   NGX = 29   NGY = 51   NGZ = 53
  (NGX  =120   NGY  =216   NGZ  =216)
  gives a total of  78387 points

 initial charge density was supplied:
 number of electron     368.0000004 magnetization      -0.0000000
 charge density for first step will be calculated from the start-wavefunctions


--------------------------------------------------------------------------------------------------------


 Maximum index for augmentation-charges          875 (set IRDMAX)


--------------------------------------------------------------------------------------------------------


 initial charge from wavefunction
 First call to EWALD:  gamma=   0.154
 Maximum number of real-space cells 4x 2x 2
 Maximum number of reciprocal cells 2x 3x 3

    FEWALD:  cpu time    0.0038: real time    0.0048


--------------------------------------- Iteration      1(   1)  ---------------------------------------


    POTLOK:  cpu time    0.4042: real time    0.4123
    SETDIJ:  cpu time    0.1637: real time    0.1729
    TRIAL :  cpu time  132.6597: real time  133.0331
    CORREC:  cpu time  132.1412: real time  132.4194
    CHARGE:  cpu time    0.0969: real time    0.0970
    --------------------------------------------
      LOOP:  cpu time  265.4745: real time  266.1477

 eigenvalue-minimisations  :     0
 total energy-change (2. order) :-0.7252254E+03  (-0.1924248E-05)
 number of electron     368.0000004 magnetization      -0.0000000
 augmentation part       36.7283413 magnetization      -0.1606056

 Free energy of the ion-electron system (eV)
  ---------------------------------------------------
  alpha Z        PSCENC =       447.95397598
  Ewald energy   TEWEN  =      3534.69199247
  -Hartree energ DENC   =    -25208.61283901
  -exchange      EXHF   =       939.09386887
  -V(xc)+E(xc)   XCENC  =      1064.90663639
  PAW double counting   =     40330.89653353   -40340.27768552
  entropy T*S    EENTRO =        -0.00000000
  eigenvalues    EBANDS =     -4734.57903902
  atomic energy  EATOM  =     23240.70119134
  ---------------------------------------------------
  free energy    TOTEN  =      -725.22536496 eV

  energy without entropy =     -725.22536496  energy(sigma->0) =     -725.22536496
  exchange ACFDT corr.  =        -0.00000000  see jH, gK, PRB 81, 115126


--------------------------------------------------------------------------------------------------------




--------------------------------------- Iteration      1(   2)  ---------------------------------------


    POTLOK:  cpu time    0.4007: real time    0.4015
    SETDIJ:  cpu time    0.1697: real time    0.1701
    TRIAL :  cpu time  132.7081: real time  132.9746
    CORREC:  cpu time  131.7409: real time  131.9952
    CHARGE:  cpu time    0.0952: real time    0.0948
    --------------------------------------------
      LOOP:  cpu time  265.1239: real time  265.6519

 eigenvalue-minimisations  :     0
 total energy-change (2. order) :-0.1927830E-05  (-0.1458211E-05)
 number of electron     368.0000004 magnetization      -0.0000000
 augmentation part       36.7283612 magnetization      -0.1606146

 Free energy of the ion-electron system (eV)
  ---------------------------------------------------
  alpha Z        PSCENC =       447.95397598
  Ewald energy   TEWEN  =      3534.69199247
  -Hartree energ DENC   =    -25208.60847440
  -exchange      EXHF   =       939.09359885
  -V(xc)+E(xc)   XCENC  =      1064.90643594
  PAW double counting   =     40331.22201028   -40340.60301958
  entropy T*S    EENTRO =        -0.00000000
  eigenvalues    EBANDS =     -4734.58307778
  atomic energy  EATOM  =     23240.70119134
  ---------------------------------------------------
  free energy    TOTEN  =      -725.22536689 eV

  energy without entropy =     -725.22536689  energy(sigma->0) =     -725.22536689
  exchange ACFDT corr.  =        -0.00000000  see jH, gK, PRB 81, 115126


--------------------------------------------------------------------------------------------------------




--------------------------------------- Iteration      1(   3)  ---------------------------------------


    POTLOK:  cpu time    0.4034: real time    0.4043
    SETDIJ:  cpu time    0.1696: real time    0.1700
    TRIAL :  cpu time  133.1185: real time  133.3810
    CORREC:  cpu time  131.7993: real time  132.0644
    EDDIAG:  cpu time  131.5752: real time  131.8637
    CHARGE:  cpu time    0.0964: real time    0.0966
    --------------------------------------------
      LOOP:  cpu time  397.1639: real time  397.9970

 eigenvalue-minimisations  :     0
 total energy-change (2. order) :-0.1454139E-05  (-0.1355385E-05)
 number of electron     368.0000004 magnetization      -0.0000000
 augmentation part       36.7283682 magnetization      -0.1606313

 Free energy of the ion-electron system (eV)
  ---------------------------------------------------
  alpha Z        PSCENC =       447.95397598
  Ewald energy   TEWEN  =      3534.69199247
  -Hartree energ DENC   =    -25208.60258986
  -exchange      EXHF   =       939.09353806
  -V(xc)+E(xc)   XCENC  =      1064.90624224
  PAW double counting   =     40331.84816038   -40341.22863794
  entropy T*S    EENTRO =        -0.00000000
  eigenvalues    EBANDS =     -4734.58907832
  atomic energy  EATOM  =     23240.70119134
  ---------------------------------------------------
  free energy    TOTEN  =      -725.22536834 eV

  energy without entropy =     -725.22536834  energy(sigma->0) =     -725.22536834
  exchange ACFDT corr.  =        -0.00000000  see jH, gK, PRB 81, 115126


--------------------------------------------------------------------------------------------------------


  average scaling for gradient   0.9731


 average (electrostatic) potential at core
  the test charge radii are     0.5201  1.1074  0.6991  0.9698  0.7089  0.7215
  (the norm of the test charge is              1.0000)
       1 -33.9014       2 -33.8967       3 -33.9997       4 -33.9843       5 -34.0499
       6 -33.9978       7 -34.2915       8 -34.3139       9 -34.3913      10 -34.4109
      11 -34.2750      12 -34.3067      13 -33.9606      14 -33.9030      15 -33.8752
      16 -33.8247      17 -33.5064      18 -33.4601      19 -34.3524      20 -34.3722
      21 -34.3153      22 -34.3034      23 -34.1006      24 -34.0971      25 -34.5387
      26 -34.5617      27 -34.5786      28 -34.6018      29 -35.3170      30 -35.2939
      31 -35.2826      32 -35.4262      33 -76.2352      34 -76.2150      35 -76.1705
      36 -76.1559      37 -54.1416      38 -54.1069      39 -50.8010      40 -50.7866
      41 -54.1759      42 -54.2078      43 -51.1471      44 -51.1720      45 -53.9635
      46 -53.9270      47 -50.6043      48 -50.5531      49 -54.0905      50 -54.1105
      51 -51.0775      52 -51.0788      53 -52.7553      54 -52.7856      55 -52.5458
      56 -52.5722      57 -52.7282      58 -52.7691      59 -52.1973      60 -52.2250
      61 -51.6151      62 -51.6227      63 -51.6200      64 -51.6269      65 -52.6486
      66 -52.6464      67 -52.6414      68 -52.7081      69 -53.6148      70 -53.5896
      71 -90.4724      72 -90.4854      73 -90.4942      74 -90.4845      75 -64.8860
      76 -64.9242      77 -64.8854      78 -64.9373      79 -70.4588      80 -70.4280
      81 -70.5258      82 -70.4814      83 -70.4488      84 -70.4704      85 -70.4957
      86 -70.5268      87 -70.3174      88 -70.2971      89 -70.3250      90 -70.2849
      91 -70.4130      92 -70.4294      93 -70.3682      94 -70.3852
 
 
 
 E-fermi :  -0.9134     XC(G=0):  -5.2950     alpha+bet : -5.0637


 spin component 1

 k-point     1 :       0.0000    0.0000    0.0000
  band No.  band energies     occupation 
      1     -50.0289      1.00000
      2     -50.0148      1.00000
      3     -49.9738      1.00000
      4     -49.9658      1.00000
      5     -49.9586      1.00000
      6     -49.9429      1.00000
      7     -49.9349      1.00000
      8     -49.9221      1.00000
      9     -49.8942      1.00000
     10     -49.8629      1.00000
     11     -49.3186      1.00000
     12     -49.2590      1.00000
     13     -26.2731      1.00000
     14     -26.1658      1.00000
     15     -26.1016      1.00000
     16     -26.0892      1.00000
     17     -26.0461      1.00000
     18     -26.0173      1.00000
     19     -25.9475      1.00000
     20     -25.8806      1.00000
     21     -23.8055      1.00000
     22     -23.7016      1.00000
     23     -23.6496      1.00000
     24     -23.6240      1.00000
     25     -23.5715      1.00000
     26     -23.5416      1.00000
     27     -23.4934      1.00000
     28     -23.4026      1.00000
     29     -22.3336      1.00000
     30     -21.9295      1.00000
     31     -21.8877      1.00000
     32     -21.5999      1.00000
     33     -21.5746      1.00000
     34     -21.4516      1.00000
     35     -20.6957      1.00000
     36     -19.3369      1.00000
     37     -18.8148      1.00000
     38     -18.6110      1.00000
     39     -18.1592      1.00000
     40     -18.0338      1.00000
     41     -17.4515      1.00000
     42     -16.7999      1.00000
     43     -16.7760      1.00000
     44     -16.7091      1.00000
     45     -16.6703      1.00000
     46     -16.6089      1.00000
     47     -16.5095      1.00000
     48     -16.4533      1.00000
     49     -16.3228      1.00000
     50     -16.2648      1.00000
     51     -16.0699      1.00000
     52     -14.4063      1.00000
     53     -13.9787      1.00000
     54     -13.4552      1.00000
     55     -13.2119      1.00000
     56     -12.6257      1.00000
     57     -12.2032      1.00000
     58     -11.8846      1.00000
     59     -11.7568      1.00000
     60     -11.6669      1.00000
     61     -11.5958      1.00000
     62     -11.5545      1.00000
     63     -11.4340      1.00000
     64     -11.3461      1.00000
     65     -11.2736      1.00000
     66     -11.1732      1.00000
     67     -11.0788      1.00000
     68     -10.9418      1.00000
     69     -10.9133      1.00000
     70     -10.4356      1.00000
     71     -10.3433      1.00000
     72     -10.2354      1.00000
     73     -10.1643      1.00000
     74     -10.0478      1.00000
     75      -9.9530      1.00000
     76      -9.5125      1.00000
     77      -9.4709      1.00000
     78      -9.4495      1.00000
     79      -9.4267      1.00000
     80      -9.3516      1.00000
     81      -9.3180      1.00000
     82      -9.2752      1.00000
     83      -9.2475      1.00000
     84      -9.2031      1.00000
     85      -9.1352      1.00000
     86      -9.1090      1.00000
     87      -9.0216      1.00000
     88      -9.0193      1.00000
     89      -8.9637      1.00000
     90      -8.9021      1.00000
     91      -8.8574      1.00000
     92      -8.8450      1.00000
     93      -8.7372      1.00000
     94      -8.6858      1.00000
     95      -8.6470      1.00000
     96      -8.6373      1.00000
     97      -8.6248      1.00000
     98      -8.5842      1.00000
     99      -8.5033      1.00000
    100      -8.4801      1.00000
    101      -8.4063      1.00000
    102      -8.3356      1.00000
    103      -8.2639      1.00000
    104      -8.2157      1.00000
    105      -7.9363      1.00000
    106      -7.8780      1.00000
    107      -7.7003      1.00000
    108      -7.5500      1.00000
    109      -7.4838      1.00000
    110      -7.4144      1.00000
    111      -7.3927      1.00000
    112      -7.2729      1.00000
    113      -7.2622      1.00000
    114      -7.2468      1.00000
    115      -7.2151      1.00000
    116      -7.0928      1.00000
    117      -7.0729      1.00000
    118      -6.9841      1.00000
    119      -6.9602      1.00000
    120      -6.9308      1.00000
    121      -6.8327      1.00000
    122      -6.8208      1.00000
    123      -6.7341      1.00000
    124      -6.6330      1.00000
    125      -6.6085      1.00000
    126      -6.5550      1.00000
    127      -6.4848      1.00000
    128      -6.2953      1.00000
    129      -6.2178      1.00000
    130      -6.2038      1.00000
    131      -6.1199      1.00000
    132      -6.0770      1.00000
    133      -6.0380      1.00000
    134      -6.0262      1.00000
    135      -6.0148      1.00000
    136      -5.9519      1.00000
    137      -5.8978      1.00000
    138      -5.8566      1.00000
    139      -5.8355      1.00000
    140      -5.7402      1.00000
    141      -5.6629      1.00000
    142      -5.6560      1.00000
    143      -5.5733      1.00000
    144      -5.4290      1.00000
    145      -5.4102      1.00000
    146      -5.0429      1.00000
    147      -4.8902      1.00000
    148      -4.8423      1.00000
    149      -4.7854      1.00000
    150      -4.7686      1.00000
    151      -4.7560      1.00000
    152      -4.7263      1.00000
    153      -4.7201      1.00000
    154      -4.7027      1.00000
    155      -4.6865      1.00000
    156      -4.6520      1.00000
    157      -4.5950      1.00000
    158      -4.5689      1.00000
    159      -4.5305      1.00000
    160      -4.4453      1.00000
    161      -4.3094      1.00000
    162      -4.2335      1.00000
    163      -4.1913      1.00000
    164      -4.1120      1.00000
    165      -4.0494      1.00000
    166      -3.9715      1.00000
    167      -3.7320      1.00000
    168      -3.4003      1.00000
    169      -3.2759      1.00000
    170      -3.1306      1.00000
    171      -3.0505      1.00000
    172      -2.9988      1.00000
    173      -2.8573      1.00000
    174      -2.7665      1.00000
    175      -2.4373      1.00000
    176      -2.3538      1.00000
    177      -1.9917      1.00000
    178      -1.6826      1.00000
    179      -1.6403      1.00000
    180      -1.6349      1.00000
    181      -1.5414      1.00000
    182      -1.5224      1.00000
    183      -1.4901      1.00000
    184      -1.2023      1.00000
    185      -0.1334      0.00000
    186       2.1541      0.00000
    187       2.2533      0.00000
    188       2.3733      0.00000
    189       2.4995      0.00000
    190       2.6070      0.00000
    191       2.6610      0.00000
    192       2.8011      0.00000
    193       2.8148      0.00000
    194       2.8581      0.00000
    195       2.9179      0.00000
    196       3.1232      0.00000
    197       3.2090      0.00000
    198       3.2733      0.00000
    199       3.3845      0.00000
    200       3.4754      0.00000
    201       3.5508      0.00000
    202       3.5959      0.00000
    203       3.6778      0.00000
    204       3.7825      0.00000
    205       3.8010      0.00000
    206       3.8372      0.00000
    207       3.9115      0.00000
    208       3.9325      0.00000
    209       4.0536      0.00000
    210       4.0937      0.00000
    211       4.1177      0.00000
    212       4.2052      0.00000
    213       4.2378      0.00000
    214       4.2813      0.00000
    215       4.3110      0.00000
    216       4.3403      0.00000
    217       4.4577      0.00000
    218       4.5346      0.00000
    219       4.6082      0.00000
    220       4.7077      0.00000
    221       4.7747      0.00000
    222       4.8471      0.00000
    223       4.9669      0.00000
    224       5.1614      0.00000
    225       5.2251      0.00000
    226       5.3196      0.00000
    227       5.3388      0.00000
    228       5.4793      0.00000
    229       5.6290      0.00000
    230       5.7345      0.00000
    231       5.7946      0.00000
    232       5.8264      0.00000

 k-point     2 :       0.3333    0.0000    0.0000
  band No.  band energies     occupation 
      1     -50.0289      1.00000
      2     -50.0148      1.00000
      3     -49.9738      1.00000
      4     -49.9658      1.00000
      5     -49.9586      1.00000
      6     -49.9429      1.00000
      7     -49.9349      1.00000
      8     -49.9221      1.00000
      9     -49.8942      1.00000
     10     -49.8629      1.00000
     11     -49.3185      1.00000
     12     -49.2590      1.00000
     13     -26.2701      1.00000
     14     -26.1639      1.00000
     15     -26.1010      1.00000
     16     -26.0904      1.00000
     17     -26.0488      1.00000
     18     -26.0173      1.00000
     19     -25.9442      1.00000
     20     -25.8859      1.00000
     21     -23.8072      1.00000
     22     -23.7031      1.00000
     23     -23.6507      1.00000
     24     -23.6238      1.00000
     25     -23.5687      1.00000
     26     -23.5416      1.00000
     27     -23.4990      1.00000
     28     -23.3953      1.00000
     29     -22.3292      1.00000
     30     -21.9372      1.00000
     31     -21.8840      1.00000
     32     -21.5996      1.00000
     33     -21.5749      1.00000
     34     -21.4531      1.00000
     35     -20.6962      1.00000
     36     -19.3389      1.00000
     37     -18.8128      1.00000
     38     -18.6136      1.00000
     39     -18.1504      1.00000
     40     -18.0393      1.00000
     41     -17.4495      1.00000
     42     -16.7998      1.00000
     43     -16.7712      1.00000
     44     -16.7090      1.00000
     45     -16.6698      1.00000
     46     -16.6090      1.00000
     47     -16.5227      1.00000
     48     -16.4467      1.00000
     49     -16.3386      1.00000
     50     -16.2474      1.00000
     51     -16.0712      1.00000
     52     -14.4059      1.00000
     53     -13.9780      1.00000
     54     -13.4547      1.00000
     55     -13.2120      1.00000
     56     -12.6358      1.00000
     57     -12.1972      1.00000
     58     -11.8026      1.00000
     59     -11.7036      1.00000
     60     -11.6663      1.00000
     61     -11.6151      1.00000
     62     -11.5658      1.00000
     63     -11.4057      1.00000
     64     -11.3633      1.00000
     65     -11.2639      1.00000
     66     -11.1676      1.00000
     67     -11.1612      1.00000
     68     -11.0225      1.00000
     69     -10.9302      1.00000
     70     -10.4238      1.00000
     71     -10.3129      1.00000
     72     -10.2498      1.00000
     73     -10.1565      1.00000
     74     -10.0305      1.00000
     75      -9.9509      1.00000
     76      -9.5212      1.00000
     77      -9.4994      1.00000
     78      -9.4371      1.00000
     79      -9.3967      1.00000
     80      -9.3379      1.00000
     81      -9.3099      1.00000
     82      -9.2783      1.00000
     83      -9.2460      1.00000
     84      -9.2085      1.00000
     85      -9.1563      1.00000
     86      -9.1056      1.00000
     87      -9.0297      1.00000
     88      -8.9725      1.00000
     89      -8.9270      1.00000
     90      -8.9095      1.00000
     91      -8.8740      1.00000
     92      -8.8071      1.00000
     93      -8.7927      1.00000
     94      -8.7446      1.00000
     95      -8.6620      1.00000
     96      -8.6482      1.00000
     97      -8.5842      1.00000
     98      -8.5434      1.00000
     99      -8.4961      1.00000
    100      -8.4530      1.00000
    101      -8.3479      1.00000
    102      -8.3054      1.00000
    103      -8.2877      1.00000
    104      -8.2259      1.00000
    105      -8.0647      1.00000
    106      -7.9794      1.00000
    107      -7.7643      1.00000
    108      -7.5114      1.00000
    109      -7.4295      1.00000
    110      -7.4136      1.00000
    111      -7.3930      1.00000
    112      -7.3121      1.00000
    113      -7.2672      1.00000
    114      -7.2522      1.00000
    115      -7.1787      1.00000
    116      -7.1134      1.00000
    117      -7.0946      1.00000
    118      -7.0054      1.00000
    119      -6.9745      1.00000
    120      -6.9325      1.00000
    121      -6.9023      1.00000
    122      -6.7932      1.00000
    123      -6.6611      1.00000
    124      -6.6361      1.00000
    125      -6.5958      1.00000
    126      -6.4422      1.00000
    127      -6.3851      1.00000
    128      -6.3558      1.00000
    129      -6.2921      1.00000
    130      -6.2711      1.00000
    131      -6.1119      1.00000
    132      -6.0870      1.00000
    133      -6.0536      1.00000
    134      -6.0374      1.00000
    135      -6.0079      1.00000
    136      -5.9467      1.00000
    137      -5.8868      1.00000
    138      -5.8503      1.00000
    139      -5.7887      1.00000
    140      -5.7237      1.00000
    141      -5.6664      1.00000
    142      -5.6546      1.00000
    143      -5.5465      1.00000
    144      -5.4916      1.00000
    145      -5.4331      1.00000
    146      -4.9117      1.00000
    147      -4.8870      1.00000
    148      -4.8427      1.00000
    149      -4.7893      1.00000
    150      -4.7748      1.00000
    151      -4.7548      1.00000
    152      -4.7223      1.00000
    153      -4.7055      1.00000
    154      -4.6883      1.00000
    155      -4.6813      1.00000
    156      -4.6540      1.00000
    157      -4.5961      1.00000
    158      -4.5343      1.00000
    159      -4.5226      1.00000
    160      -4.3831      1.00000
    161      -4.3065      1.00000
    162      -4.2885      1.00000
    163      -4.2116      1.00000
    164      -4.1639      1.00000
    165      -4.1182      1.00000
    166      -3.9834      1.00000
    167      -3.6560      1.00000
    168      -3.4366      1.00000
    169      -3.1412      1.00000
    170      -3.1322      1.00000
    171      -3.0496      1.00000
    172      -3.0055      1.00000
    173      -2.8489      1.00000
    174      -2.7629      1.00000
    175      -2.5252      1.00000
    176      -2.3628      1.00000
    177      -2.2555      1.00000
    178      -1.6455      1.00000
    179      -1.6307      1.00000
    180      -1.5505      1.00000
    181      -1.5185      1.00000
    182      -1.5025      1.00000
    183      -1.2683      1.00000
    184      -1.2124      1.00000
    185      -0.2613      0.00000
    186       2.1139      0.00000
    187       2.1608      0.00000
    188       2.3503      0.00000
    189       2.5882      0.00000
    190       2.6814      0.00000
    191       2.7311      0.00000
    192       2.7968      0.00000
    193       2.8541      0.00000
    194       2.9113      0.00000
    195       3.0105      0.00000
    196       3.1034      0.00000
    197       3.1814      0.00000
    198       3.2781      0.00000
    199       3.3824      0.00000
    200       3.5112      0.00000
    201       3.5973      0.00000
    202       3.6732      0.00000
    203       3.6918      0.00000
    204       3.7382      0.00000
    205       3.7555      0.00000
    206       3.8234      0.00000
    207       3.9406      0.00000
    208       3.9996      0.00000
    209       4.0586      0.00000
    210       4.0717      0.00000
    211       4.1122      0.00000
    212       4.1975      0.00000
    213       4.2466      0.00000
    214       4.3105      0.00000
    215       4.3623      0.00000
    216       4.3943      0.00000
    217       4.4623      0.00000
    218       4.5478      0.00000
    219       4.5778      0.00000
    220       4.6587      0.00000
    221       4.7091      0.00000
    222       4.7413      0.00000
    223       4.8464      0.00000
    224       4.9395      0.00000
    225       5.0550      0.00000
    226       5.1324      0.00000
    227       5.2975      0.00000
    228       5.4184      0.00000
    229       5.4541      0.00000
    230       5.6400      0.00000
    231       5.8185      0.00000
    232       5.9130      0.00000

 spin component 2

 k-point     1 :       0.0000    0.0000    0.0000
  band No.  band energies     occupation 
      1     -50.0570      1.00000
      2     -50.0373      1.00000
      3     -50.0146      1.00000
      4     -49.9901      1.00000
      5     -49.9862      1.00000
      6     -49.9796      1.00000
      7     -49.9736      1.00000
      8     -49.9673      1.00000
      9     -49.9197      1.00000
     10     -49.9083      1.00000
     11     -49.3603      1.00000
     12     -49.3141      1.00000
     13     -26.2731      1.00000
     14     -26.1654      1.00000
     15     -26.1013      1.00000
     16     -26.0893      1.00000
     17     -26.0465      1.00000
     18     -26.0169      1.00000
     19     -25.9474      1.00000
     20     -25.8810      1.00000
     21     -23.8054      1.00000
     22     -23.7013      1.00000
     23     -23.6499      1.00000
     24     -23.6235      1.00000
     25     -23.5722      1.00000
     26     -23.5410      1.00000
     27     -23.4936      1.00000
     28     -23.4033      1.00000
     29     -22.2295      1.00000
     30     -22.0115      1.00000
     31     -21.9782      1.00000
     32     -21.6830      1.00000
     33     -21.6602      1.00000
     34     -21.3909      1.00000
     35     -20.7885      1.00000
     36     -19.4957      1.00000
     37     -18.6709      1.00000
     38     -18.4946      1.00000
     39     -18.2410      1.00000
     40     -18.0215      1.00000
     41     -17.4876      1.00000
     42     -16.7762      1.00000
     43     -16.7118      1.00000
     44     -16.7049      1.00000
     45     -16.6699      1.00000
     46     -16.6086      1.00000
     47     -16.5086      1.00000
     48     -16.4526      1.00000
     49     -16.3237      1.00000
     50     -16.2712      1.00000
     51     -16.2371      1.00000
     52     -14.1984      1.00000
     53     -14.0326      1.00000
     54     -13.4906      1.00000
     55     -13.1932      1.00000
     56     -12.6672      1.00000
     57     -12.1651      1.00000
     58     -11.8865      1.00000
     59     -11.7642      1.00000
     60     -11.6359      1.00000
     61     -11.5783      1.00000
     62     -11.5460      1.00000
     63     -11.4337      1.00000
     64     -11.3642      1.00000
     65     -11.2705      1.00000
     66     -11.1729      1.00000
     67     -11.0710      1.00000
     68     -10.9142      1.00000
     69     -10.8884      1.00000
     70     -10.4392      1.00000
     71     -10.3472      1.00000
     72     -10.2673      1.00000
     73     -10.1662      1.00000
     74     -10.0502      1.00000
     75      -9.9334      1.00000
     76      -9.5124      1.00000
     77      -9.4718      1.00000
     78      -9.4493      1.00000
     79      -9.4266      1.00000
     80      -9.3498      1.00000
     81      -9.3193      1.00000
     82      -9.2753      1.00000
     83      -9.2261      1.00000
     84      -9.2028      1.00000
     85      -9.1242      1.00000
     86      -9.1100      1.00000
     87      -9.0199      1.00000
     88      -8.9707      1.00000
[...]
   -.180E+02 -.619E+03 -.196E+03   0.440E+02 0.631E+03 0.233E+03   -.227E+02 -.108E+02 -.326E+02
   0.216E+02 0.614E+03 0.188E+03   -.476E+02 -.626E+03 -.226E+03   0.227E+02 0.105E+02 0.327E+02
   0.286E+03 -.321E+03 0.257E+03   -.305E+03 0.299E+03 -.293E+03   0.166E+02 0.189E+02 0.313E+02
   -.286E+03 0.313E+03 -.257E+03   0.305E+03 -.292E+03 0.292E+03   -.166E+02 -.189E+02 -.309E+02
   -.438E+03 0.144E+03 -.115E+03   0.454E+03 -.187E+03 0.108E+03   -.136E+02 0.379E+02 0.574E+01
   0.438E+03 -.123E+03 0.113E+03   -.453E+03 0.166E+03 -.107E+03   0.137E+02 -.377E+02 -.554E+01
   -.196E+03 -.356E+03 -.163E+03   0.171E+03 0.393E+03 0.166E+03   0.218E+02 -.326E+02 -.197E+01
   0.202E+03 0.385E+03 0.160E+03   -.177E+03 -.422E+03 -.163E+03   -.217E+02 0.329E+02 0.240E+01
   -.140E+03 0.203E+03 0.553E+03   0.161E+03 -.245E+03 -.553E+03   -.183E+02 0.365E+02 0.547E-01
   0.139E+03 -.192E+03 -.551E+03   -.160E+03 0.234E+03 0.551E+03   0.178E+02 -.368E+02 0.167E-01
   0.174E+03 -.279E+03 0.449E+03   -.195E+03 0.319E+03 -.437E+03   0.180E+02 -.349E+02 -.992E+01
   -.159E+03 0.294E+03 -.446E+03   0.179E+03 -.334E+03 0.434E+03   -.176E+02 0.348E+02 0.100E+02
 -----------------------------------------------------------------------------------------------
   0.546E+01 0.985E+00 0.451E+00   -.512E-12 -.909E-12 0.119E-11   -.513E+01 -.963E+00 -.410E+00
 
 
 POSITION                                       TOTAL-FORCE (eV/Angst)
 -----------------------------------------------------------------------------------
      3.84919      6.95231     11.68850        -0.011203     -0.003879      0.005860
      3.87346      6.61611      0.85963         0.009891      0.004952     -0.007074
      3.52813      8.67081     11.81436        -0.005612      0.000166     -0.000829
      4.21418      4.90265      0.70481         0.005448      0.000861      0.001522
      2.81639      7.72970     10.47176        -0.003649     -0.002437     -0.003861
      4.94494      5.83650      2.04427         0.000446      0.003972      0.005520
      6.64111     11.27463     12.32617        -0.001306      0.001291     -0.001008
      1.01182      2.33801      0.16953         0.003333     -0.001133      0.002825
      5.15627     10.51126     12.88365         0.003751     -0.004162      0.002111
      2.49849      3.07785     -0.41377        -0.001004      0.004971     -0.000352
      5.50629     10.54054     11.14592         0.000306     -0.000079      0.000432
      2.17279      3.06253      1.32856         0.002582      0.000307      0.002687
      3.58578      1.86279      9.04307        -0.003820     -0.019946      0.010466
      4.09922     11.69838      3.62218         0.004771      0.014025     -0.010944
      3.63992      2.74456      7.52732        -0.009172      0.002155      0.010318
      4.00746     10.98726      5.22366         0.008008     -0.002745     -0.005106
      4.41001      1.14041      7.64024        -0.009381     -0.008550     -0.007474
      3.25764     12.57380      4.92900         0.008778      0.011263      0.005287
      0.61505      1.69300      2.84760         0.001796      0.001383     -0.010946
      6.90912     12.09715      9.74413        -0.004941     -0.001910      0.007953
      7.01316      0.78022      1.45028         0.004378     -0.004325     -0.008284
      0.61554     12.82049     11.13370        -0.004333     -0.000957      0.007629
      0.59408     13.57913      2.17792         0.006512     -0.004298     -0.005558
      7.14343      0.20251     10.41968        -0.004534      0.004359      0.003515
      3.33509      6.51020      3.82490         0.005474      0.005178     -0.005520
      4.22899      7.22524      8.63917         0.009905     -0.005139      0.010279
      2.82609      8.81565      7.42226         0.024854      0.004682     -0.000271
      4.73373      4.91805      5.04139        -0.007458     -0.008166      0.004076
     -0.09240      8.89946     10.49590        -0.022213     -0.015588      0.010058
      0.42749      4.72450      3.21698        -0.008473     -0.008421     -0.012090
      6.55940     10.27723      7.43357         0.005021      0.001221     -0.007466
      1.65443      3.29713      5.02378        -0.023967     -0.007269      0.011816
      0.53099      7.25755      0.72919         0.022954     -0.019665      0.036867
      7.15840      6.36244     11.75321        -0.022191      0.000658     -0.020770
      0.36931     12.61616      6.57633        -0.006572     -0.024822      0.010162
      7.28993      1.09949      6.01157        -0.001745      0.017917     -0.005716
      1.90218      7.41666     12.38296        -0.005596      0.001498     -0.000823
      5.81380      6.18587      0.12246         0.007396     -0.002297      0.002849
      3.08836      7.71895     11.52455        -0.001893     -0.002743     -0.002481
      4.64687      5.85699      0.99832        -0.001079      0.001548      0.004800
      6.65417      9.13772     12.29322        -0.000269      0.000402     -0.001507
      1.02572      4.47402      0.18627         0.000714      0.002719      0.005065
      5.95080     10.45400     12.13543        -0.001124      0.001294     -0.000955
      1.71562      3.15069      0.34512         0.005086     -0.003005      0.003671
      2.26552      1.12429      7.56850        -0.010023     -0.003771      0.001708
      5.40212     12.57065      5.04048         0.011812      0.002957     -0.001117
      3.56721      1.74732      7.95669        -0.009472     -0.006815      0.001160
      4.09863     11.93109      4.68945         0.008579      0.005640     -0.000472
      0.11050      0.48823      4.53051         0.003631     -0.000651      0.001262
      7.54048     13.23682      8.06118        -0.002588     -0.002459     -0.004459
      0.15228      0.72681      3.05013         0.005663     -0.002426     -0.008252
      7.48752     12.99943      9.54146        -0.005360      0.000799      0.007931
      1.79730      8.45022      3.50110         0.013744      0.016931      0.042313
      5.79092      5.27692      8.96099        -0.014534     -0.020591     -0.042587
      2.14591      8.70389      4.82783        -0.004520      0.035170     -0.018083
      5.41376      5.03152      7.63863         0.024731     -0.040893      0.027395
      1.64307      9.83171      5.47606         0.015191      0.007496     -0.003059
      5.94544      3.91019      7.00164        -0.007878     -0.009553      0.008954
      2.97569      7.78600      5.53026         0.040264     -0.016490      0.022173
      4.58147      5.94496      6.93623        -0.022921      0.022019     -0.012364
      3.53405      6.66306      4.87857        -0.001014      0.026565      0.006370
      4.02587      7.06998      7.58660         0.018799     -0.015745     -0.002620
      3.25026      7.96287      6.90447         0.006191      0.015152     -0.018319
      4.31083      5.77080      5.56038         0.009544     -0.005835      0.018766
      7.64315      8.59861      8.25038        -0.023452      0.007591     -0.011989
      0.46220      4.93275      4.27735        -0.000770     -0.010078     -0.001424
      6.97887      9.28947      7.31059        -0.007589      0.006205     -0.025015
      1.11609      4.21530      5.20564        -0.009870     -0.002140      0.016324
      7.74115      7.17094      6.17134         0.009601     -0.011313      0.003407
      0.15981      6.18570      6.44833        -0.007893      0.010530     -0.018743
      0.40366      7.07786      9.01029        -0.007435     -0.024873     -0.019689
      7.52891      6.33537      3.60179        -0.007487      0.024251     -0.010557
      6.82649      8.55752      5.77794        -0.005750      0.041327     -0.007516
      1.08059      4.79588      6.80807        -0.009373     -0.001148     -0.005869
      1.54110      8.12494      2.41950        -0.010022     -0.008009     -0.041738
      6.11088      5.55506     10.03902         0.008422      0.003650      0.054971
      1.27665     10.74423      6.08838         0.001627      0.004277      0.001929
      6.36757      2.99032      6.43704        -0.005127     -0.004725      0.003328
      2.06510      7.70944     -0.51424        -0.005458      0.004152      0.001842
      5.63423      5.91049     13.01549         0.008016     -0.000488     -0.003870
      0.88736      6.88813     11.83275        -0.006867      0.002323     -0.000234
      6.82807      6.71886      0.66670         0.008876     -0.000254      0.000398
      7.53269      9.05032     -0.87022        -0.007339      0.006640     -0.005995
      0.15029      4.56610     13.34868         0.006544      0.000158      0.007701
      6.36797      8.22184     11.46618         0.004850     -0.002391      0.001515
      1.31847      5.38931      1.01387        -0.003941      0.007812     -0.001545
      2.14414     13.53300      6.95276        -0.004474     -0.003730      0.002178
      5.51928      0.16492      5.64870         0.007336      0.006763     -0.001103
      1.25361      1.89082      7.53314        -0.007360      0.001474      0.000141
      6.41822     11.81001      5.05910         0.010961     -0.001540     -0.003579
      0.49042     13.05098      4.59399         0.003330      0.002083     -0.005404
      7.17610      0.67932      7.99603         0.000554     -0.000486      0.001025
      7.46892      1.40629      4.01247         0.005784     -0.002251     -0.005090
      0.17082     12.30957      8.58023        -0.005399      0.001400      0.001167
 -----------------------------------------------------------------------------------
    total drift:                               -0.000664     -0.000862     -0.000728


--------------------------------------------------------------------------------------------------------



  FREE ENERGIE OF THE ION-ELECTRON SYSTEM (eV)
  ---------------------------------------------------
  free  energy   TOTEN  =      -731.24480610 eV

  energy  without entropy=     -731.24480610  energy(sigma->0) =     -731.24480610
 


--------------------------------------------------------------------------------------------------------


    POTLOK:  cpu time    0.6385: real time    0.6412


--------------------------------------------------------------------------------------------------------


 writing wavefunctions
     LOOP+:  cpu time 1086.8294: real time 1091.2169
    4ORBIT:  cpu time    0.0000: real time    0.0000
 


 total charge     
 
# of ion       s       p       d       tot
------------------------------------------
    1        0.630   0.048   0.000   0.678
    2        0.631   0.048   0.000   0.679
    3        0.647   0.047   0.000   0.694
    4        0.647   0.047   0.000   0.693
    5        0.652   0.047   0.000   0.699
    6        0.651   0.047   0.000   0.698
    7        0.645   0.047   0.000   0.692
    8        0.645   0.047   0.000   0.692
    9        0.638   0.046   0.000   0.684
   10        0.638   0.046   0.000   0.684
   11        0.650   0.046   0.000   0.697
   12        0.651   0.046   0.000   0.697
   13        0.639   0.046   0.000   0.685
   14        0.640   0.046   0.000   0.686
   15        0.649   0.047   0.000   0.696
   16        0.648   0.047   0.000   0.694
   17        0.643   0.049   0.000   0.692
   18        0.644   0.049   0.000   0.693
   19        0.646   0.046   0.000   0.692
   20        0.645   0.046   0.000   0.691
   21        0.641   0.046   0.000   0.687
   22        0.642   0.046   0.000   0.688
   23        0.649   0.047   0.000   0.696
   24        0.649   0.047   0.000   0.696
   25        0.650   0.050   0.000   0.700
   26        0.650   0.050   0.000   0.700
   27        0.650   0.049   0.000   0.699
   28        0.650   0.049   0.000   0.699
   29        0.634   0.052   0.000   0.686
   30        0.630   0.052   0.000   0.683
   31        0.632   0.052   0.000   0.684
   32        0.637   0.051   0.000   0.688
   33        0.339   6.315   7.075  13.729
   34        0.337   6.312   7.077  13.725
   35        0.341   6.320   7.075  13.736
   36        0.341   6.318   7.077  13.735
   37        0.882   1.697   0.000   2.578
   38        0.881   1.695   0.000   2.577
   39        0.854   1.828   0.000   2.682
   40        0.853   1.827   0.000   2.680
   41        0.881   1.701   0.000   2.582
   42        0.881   1.700   0.000   2.581
   43        0.853   1.821   0.000   2.673
   44        0.853   1.821   0.000   2.673
   45        0.882   1.697   0.000   2.579
   46        0.882   1.696   0.000   2.578
   47        0.854   1.828   0.000   2.682
   48        0.854   1.829   0.000   2.683
   49        0.881   1.702   0.000   2.583
   50        0.881   1.701   0.000   2.582
   51        0.853   1.821   0.000   2.674
   52        0.853   1.822   0.000   2.674
   53        0.946   1.805   0.000   2.751
   54        0.945   1.804   0.000   2.750
   55        0.842   1.836   0.000   2.678
   56        0.842   1.836   0.000   2.678
   57        0.945   1.808   0.000   2.753
   58        0.945   1.808   0.000   2.753
   59        0.872   1.771   0.000   2.644
   60        0.873   1.771   0.000   2.643
   61        0.879   1.786   0.000   2.665
   62        0.879   1.786   0.000   2.665
   63        0.879   1.787   0.000   2.666
   64        0.878   1.787   0.000   2.666
   65        0.876   1.739   0.000   2.615
   66        0.876   1.740   0.000   2.616
   67        0.877   1.739   0.000   2.616
   68        0.876   1.737   0.000   2.613
   69        0.856   1.697   0.000   2.553
   70        0.856   1.699   0.000   2.555
   71        1.350   2.397   0.000   3.747
   72        1.348   2.402   0.000   3.750
   73        1.346   2.407   0.000   3.753
   74        1.348   2.400   0.000   3.748
   75        1.313   2.557   0.000   3.870
   76        1.313   2.553   0.000   3.866
   77        1.314   2.558   0.000   3.872
   78        1.314   2.554   0.000   3.868
   79        1.580   3.599   0.000   5.179
   80        1.580   3.598   0.000   5.177
   81        1.578   3.598   0.000   5.176
   82        1.578   3.596   0.000   5.175
   83        1.581   3.596   0.000   5.177
   84        1.581   3.597   0.000   5.178
   85        1.579   3.595   0.000   5.175
   86        1.579   3.595   0.000   5.174
   87        1.581   3.596   0.000   5.177
   88        1.580   3.595   0.000   5.175
   89        1.578   3.598   0.000   5.177
   90        1.578   3.598   0.000   5.176
   91        1.581   3.594   0.000   5.175
   92        1.581   3.595   0.000   5.176
   93        1.580   3.598   0.000   5.178
   94        1.579   3.598   0.000   5.177
--------------------------------------------------
tot         87.688 164.288  28.303 280.278
 


 magnetization (x)
 
# of ion       s       p       d       tot
------------------------------------------
    1       -0.000  -0.000   0.000  -0.000
    2       -0.000  -0.000   0.000  -0.000
    3        0.000   0.000   0.000   0.000
    4        0.000   0.000   0.000   0.000
    5       -0.000   0.000   0.000   0.000
    6        0.000   0.000   0.000   0.000
    7        0.000   0.000   0.000   0.000
    8        0.000   0.000   0.000   0.000
    9        0.000   0.000   0.000   0.000
   10        0.000   0.000   0.000   0.000
   11        0.000   0.000   0.000   0.000
   12        0.000   0.000   0.000   0.000
   13       -0.000  -0.000   0.000  -0.000
   14       -0.000  -0.000   0.000  -0.000
   15        0.000   0.000   0.000   0.000
   16        0.000   0.000   0.000   0.000
   17       -0.000  -0.000   0.000  -0.000
   18       -0.000  -0.000   0.000  -0.000
   19        0.000   0.000   0.000   0.000
   20        0.000   0.000   0.000   0.000
   21        0.000   0.000   0.000   0.000
   22        0.000   0.000   0.000   0.000
   23        0.000   0.000   0.000   0.000
   24        0.000   0.000   0.000   0.000
   25        0.001  -0.000   0.000   0.001
   26        0.001  -0.000   0.000   0.001
   27        0.001  -0.000   0.000   0.000
   28        0.001  -0.000   0.000   0.000
   29       -0.001   0.000   0.000  -0.001
   30       -0.001   0.000   0.000  -0.001
   31       -0.001   0.000   0.000  -0.000
   32       -0.001   0.000   0.000  -0.000
   33        0.000  -0.000  -0.024  -0.024
   34        0.000  -0.000  -0.026  -0.026
   35        0.000   0.000  -0.033  -0.033
   36        0.000   0.000  -0.033  -0.032
   37        0.000   0.000   0.000   0.000
   38        0.000   0.000   0.000   0.000
   39        0.000   0.000   0.000   0.001
   40        0.000   0.000   0.000   0.000
   41        0.000   0.000   0.000   0.000
   42        0.000   0.000   0.000   0.000
   43        0.000   0.000   0.000   0.000
   44        0.000   0.000   0.000   0.000
   45        0.000   0.000   0.000   0.000
   46        0.000   0.000   0.000   0.000
   47        0.000  -0.000   0.000  -0.000
   48        0.000  -0.000   0.000  -0.000
   49        0.000   0.000   0.000   0.000
   50        0.000   0.000   0.000   0.000
   51        0.000   0.000   0.000   0.000
   52        0.000   0.000   0.000   0.000
   53        0.003   0.022   0.000   0.025
   54        0.003   0.021   0.000   0.024
   55       -0.006  -0.107   0.000  -0.113
   56       -0.006  -0.105   0.000  -0.111
   57        0.003   0.024   0.000   0.028
   58        0.003   0.024   0.000   0.028
   59       -0.000  -0.023   0.000  -0.023
   60       -0.000  -0.023   0.000  -0.024
   61       -0.001  -0.018   0.000  -0.019
   62       -0.001  -0.018   0.000  -0.018
   63       -0.000  -0.014   0.000  -0.015
   64       -0.000  -0.014   0.000  -0.015
   65        0.001   0.017   0.000   0.018
   66        0.001   0.020   0.000   0.021
   67        0.000   0.012   0.000   0.012
   68        0.000   0.010   0.000   0.010
   69        0.004   0.070   0.000   0.074
   70        0.003   0.067   0.000   0.070
   71        0.003   0.087   0.000   0.090
   72        0.003   0.085   0.000   0.088
   73        0.004   0.092   0.000   0.095
   74        0.004   0.097   0.000   0.101
   75       -0.002  -0.062   0.000  -0.065
   76       -0.002  -0.060   0.000  -0.062
   77       -0.002  -0.066   0.000  -0.068
   78       -0.002  -0.066   0.000  -0.068
   79        0.000  -0.000   0.000  -0.000
   80        0.000  -0.000   0.000  -0.000
   81       -0.000  -0.000   0.000  -0.000
   82       -0.000  -0.000   0.000  -0.000
   83        0.000   0.000   0.000   0.000
   84        0.000   0.000   0.000   0.000
   85        0.000   0.000   0.000   0.000
   86        0.000   0.000   0.000   0.000
   87        0.000  -0.000   0.000  -0.000
   88        0.000  -0.000   0.000  -0.000
   89        0.000   0.000   0.000   0.000
   90        0.000  -0.000   0.000  -0.000
   91        0.000   0.000   0.000   0.000
   92        0.000   0.000   0.000   0.000
   93        0.000   0.000   0.000   0.000
   94        0.000   0.000   0.000   0.000
--------------------------------------------------
tot          0.013   0.072  -0.115  -0.030
 

 total amount of memory used by VASP MPI-rank0    88639. kBytes
=======================================================================

   base      :      30000. kBytes
   nonl-proj :       5571. kBytes
   fftplans  :       4664. kBytes
   grid      :      13343. kBytes
   one-center:        124. kBytes
   HF        :         69. kBytes
   nonlr-proj:      15227. kBytes
   wavefun   :      19641. kBytes
 
  
  
 General timing and accounting informations for this job:
 ========================================================
  
                  Total CPU time used (sec):     1162.384
                            User time (sec):     1124.482
                          System time (sec):       37.902
                         Elapsed time (sec):     1171.195
  
                   Maximum memory used (kb):      378928.
                   Average memory used (kb):           0.
  
                          Minor page faults:       101002
                          Major page faults:          113
                 Voluntary context switches:        17587
